variable        infile index data.water_1NaSCN
variable        mytemp index 298

# set up simulation
# the following information is saved to restart files
units           real
atom_style      full
boundary        p p p
pair_style      lj/cut/coul/long 12
kspace_style    ewald 0.0001
pair_modify     tail yes
pair_modify     mix arithmetic
special_bonds   amber

bond_style      harmonic
angle_style     harmonic
#dihedral_style  charmm
#improper_style  cvff

read_data       ${infile}
read_data       data.water_1NaSCN
  orthogonal box = (0 0 0) to (42.8272 42.8272 42.8272)
  2 by 2 by 4 MPI processor grid
  reading atoms ...
  7504 atoms
  reading velocities ...
  7504 velocities
  scanning bonds ...
  2 = max bonds/atom
  scanning angles ...
  1 = max angles/atom
  reading bonds ...
  5002 bonds
  reading angles ...
  2501 angles
  2 = max # of 1-2 neighbors
  1 = max # of 1-3 neighbors
  1 = max # of 1-4 neighbors
  2 = max # of special neighbors

neighbor        2.0 bin
neigh_modify    delay 0 every 1 check yes page 1000000 one 20000
timestep        1.0

## end information that is saved to restart files

## create velocity profile
velocity        all create  ${mytemp} 314159265 units box
velocity        all create  298 314159265 units box
velocity        all zero linear units box
dump            DUMP all custom 500 ${NAME}.lammpstrj id type x y z vx vy vz mol
dump            DUMP all custom 500 mol.lammpstrj id type x y z vx vy vz mol
thermo_style    custom step vol temp press ke pe etotal enthalpy evdwl ecoul epair ebond eangle edihed eimp emol elong etail lx ly lz xy xz yz density
thermo          2000
#
## thermostat and integrator
#
group          rigid type 1 2 3 4 5
7503 atoms in group rigid
group          mobile type 6
1 atoms in group mobile

fix            rigid rigid rigid/nvt/small molecule temp ${mytemp} ${mytemp} 100.0
fix            rigid rigid rigid/nvt/small molecule temp 298 ${mytemp} 100.0
fix            rigid rigid rigid/nvt/small molecule temp 298 298 100.0
2501 rigid bodies with 7503 atoms
  73.6819 = max distance from body owner to body atom

#minimize       1e-4 1e-6 10000 10000

#fix             shake all shake 0.0001 20 0 b 1 a 1
#fix             NPT all npt temp ${mytemp} ${mytemp} 100.0 iso 1.0 1.0 100.0
fix             NVT mobile nvt temp ${mytemp} ${mytemp} 100.0
fix             NVT mobile nvt temp 298 ${mytemp} 100.0
fix             NVT mobile nvt temp 298 298 100.0

restart         50000 restart.${NAME}.1 restart.${NAME}.2
restart         50000 restart.mol.1 restart.${NAME}.2
restart         50000 restart.mol.1 restart.mol.2
run             1000000
Ewald initialization ...
  G vector (1/distance) = 0.210766
  estimated absolute RMS force accuracy = 0.034194
  estimated relative force accuracy = 0.000102974
  KSpace vectors: actual max1d max3d = 1054 8 2456
                  kxmax kymax kzmax  = 8 8 8
Memory usage per processor = 13.6293 Mbytes
Step Volume Temp Press KinEng PotEng TotEng Enthalpy E_vdwl E_coul E_pair E_bond E_angle E_dihed E_impro E_mol E_long E_tail Lx Ly Lz Xy Xz Yz Density 
       0    78552.325    251.92214    234.30208    3756.1621   -18143.853   -14387.691   -14119.273    3202.6759      74287.8   -22082.571    3275.7018    663.01615            0            0    3938.7179   -99573.047   -60.522582      42.8272      42.8272      42.8272            0            0            0   0.95382647 
    2000    78552.325    295.47879   -278.73046    4405.5922   -18256.442    -13850.85   -14170.165    2868.4245    74513.577   -22194.847    3275.2734    663.13147            0            0    3938.4049   -99576.848   -60.522582      42.8272      42.8272      42.8272            0            0            0   0.95382647 
    4000    78552.325    300.35412   -120.59569    4478.2835   -18145.185   -13666.901   -13805.056    2830.9994    74666.978    -22084.26     3275.267    663.80835            0            0    3939.0754   -99582.238   -60.522582      42.8272      42.8272      42.8272            0            0            0   0.95382647 
    6000    78552.325     299.0739   -564.89322    4459.1954   -18188.028   -13728.832   -14375.977    2904.2755    74545.702   -22127.747    3275.9758    663.74363            0            0    3939.7195   -99577.725   -60.522582      42.8272      42.8272      42.8272            0            0            0   0.95382647 
    8000    78552.325    299.13058   -110.87444    4460.0405    -18273.17   -13813.129   -13940.147    2985.7125    74383.037    -22211.84    3275.0877    663.58292            0            0    3938.6707    -99580.59   -60.522582      42.8272      42.8272      42.8272            0            0            0   0.95382647 
   10000    78552.325     300.2877    377.97219    4477.2932   -18135.165   -13657.872   -13224.865    2989.4372    74516.805   -22074.082    3275.7291    663.18778            0            0    3938.9169   -99580.324   -60.522582      42.8272      42.8272      42.8272            0            0            0   0.95382647 
   12000    78552.325    294.65347   -503.97085    4393.2867   -18235.204   -13841.918   -14419.269    2842.2552    74559.494    -22173.53    3275.2527    663.07308            0            0    3938.3258    -99575.28   -60.522582      42.8272      42.8272      42.8272            0            0            0   0.95382647 
   14000    78552.325    296.01774   -351.14645     4413.628   -18214.666   -13801.038   -14203.313    2958.3831    74467.182   -22153.197    3275.5137    663.01699            0            0    3938.5307   -99578.762   -60.522582      42.8272      42.8272      42.8272            0            0            0   0.95382647 
   16000    78552.325    303.67111    126.01471    4527.7399   -18244.604   -13716.864   -13572.501    2930.7139    74465.262   -22183.576    3275.7431    663.22901            0            0    3938.9721   -99579.552   -60.522582      42.8272      42.8272      42.8272            0            0            0   0.95382647 
   18000    78552.325    301.07134    -258.6015    4488.9772   -18170.963   -13681.986   -13978.241    2840.2997    74624.917   -22109.219    3275.1531    663.10295            0            0    3938.2561   -99574.436   -60.522582      42.8272      42.8272      42.8272            0            0            0   0.95382647 
   20000    78552.325    299.02154   -7.3334414    4458.4148   -18159.254   -13700.839   -13709.241    3075.5951     74399.79    -22098.21    3275.9569    662.99856            0            0    3938.9555   -99573.595   -60.522582      42.8272      42.8272      42.8272            0            0            0   0.95382647 
   22000    78552.325    298.56878   -636.13694    4451.6641   -18127.127   -13675.463   -14404.224    2720.7526    74792.792   -22065.908    3275.0987    663.68244            0            0    3938.7812   -99579.453   -60.522582      42.8272      42.8272      42.8272            0            0            0   0.95382647 
   24000    78552.325    297.12017    68.036706    4430.0652   -18230.161   -13800.095   -13722.152    2944.2344    74467.108    -22170.53    3275.4447    664.92463            0            0    3940.3693   -99581.872   -60.522582      42.8272      42.8272      42.8272            0            0            0   0.95382647 
   26000    78552.325    301.34947   -401.11709    4493.1242   -18277.465   -13784.341   -14243.863    2995.1908    74371.761   -22216.453    3275.7949    663.19241            0            0    3938.9873   -99583.404   -60.522582      42.8272      42.8272      42.8272            0            0            0   0.95382647 
   28000    78552.325    299.44425   -124.96196    4464.7174   -18238.765   -13774.048   -13917.205    2945.7728    74451.994   -22177.411    3275.1707    663.47525            0            0    3938.6459   -99575.178   -60.522582      42.8272      42.8272      42.8272            0            0            0   0.95382647 
   30000    78552.325    297.05705   -33.330902    4429.1242   -18265.366   -13836.242   -13874.426    2869.8235    74505.756   -22204.221    3275.6869    663.16806            0            0     3938.855     -99579.8   -60.522582      42.8272      42.8272      42.8272            0            0            0   0.95382647 
   32000    78552.325    302.55985   -205.54143     4511.171   -18143.193   -13632.022   -13867.492    2937.5664    74560.693   -22081.821    3275.5886      663.039            0            0    3938.6276   -99580.081   -60.522582      42.8272      42.8272      42.8272            0            0            0   0.95382647 
   34000    78552.325    296.51336   -181.40606    4421.0177   -18289.786   -13868.768   -14076.588    3091.9045    74264.744   -22228.074    3275.2418    663.04657            0            0    3938.2884   -99584.723   -60.522582      42.8272      42.8272      42.8272            0            0            0   0.95382647 
   36000    78552.325    296.92599    242.55106    4427.1701   -18196.932   -13769.762   -13491.894    2942.5337    74497.245   -22136.201    3275.9943    663.27499            0            0    3939.2693   -99575.979   -60.522582      42.8272      42.8272      42.8272            0            0            0   0.95382647 
   38000    78552.325    295.43531      73.5913    4404.9439   -18158.528   -13753.584   -13669.277     2972.571    74510.651   -22096.764    3275.1118    663.12458            0            0    3938.2363   -99579.986   -60.522582      42.8272      42.8272      42.8272            0            0            0   0.95382647 
   40000    78552.325    299.71359   -537.26126    4468.7332   -18208.216   -13739.483   -14354.972    2912.0484    74515.063   -22147.094    3275.7523    663.12557            0            0    3938.8779   -99574.205   -60.522582      42.8272      42.8272      42.8272            0            0            0   0.95382647 
   42000    78552.325    297.61399    612.01837    4437.4282   -18205.021   -13767.593   -13066.461    3144.8116    74289.348   -22144.148    3275.4593    663.66766            0            0     3939.127   -99578.307   -60.522582      42.8272      42.8272      42.8272            0            0            0   0.95382647 
   44000    78552.325    300.60835    42.853036     4482.074   -18145.362   -13663.288   -13614.195    2913.3634    74576.951   -22083.643    3275.1671    663.11433            0            0    3938.2814   -99573.958   -60.522582      42.8272      42.8272      42.8272            0            0            0   0.95382647 
   46000    78552.325    293.08935   -558.18784    4369.9657   -18186.392   -13816.427    -14455.89    2893.2362    74554.934   -22125.785    3275.9136    663.47933            0            0    3939.3929   -99573.956   -60.522582      42.8272      42.8272      42.8272            0            0            0   0.95382647 
   48000    78552.325    295.77374    72.146676      4409.99   -18144.515   -13734.525   -13651.873     2923.943    74570.182   -22082.819    3275.1823    663.12162            0            0    3938.3039   -99576.944   -60.522582      42.8272      42.8272      42.8272            0            0            0   0.95382647 
   50000    78552.325     294.1864    233.37497    4386.3227   -18185.458   -13799.135   -13531.779    2975.9046    74471.988   -22124.419    3275.5766    663.38464            0            0    3938.9612   -99572.311   -60.522582      42.8272      42.8272      42.8272            0            0            0   0.95382647 
   52000    78552.325    298.47624   -518.09498    4450.2842   -18167.703   -13717.419   -14310.951    2862.2729    74606.293   -22106.796    3275.7101    663.38323            0            0    3939.0933   -99575.362   -60.522582      42.8272      42.8272      42.8272            0            0            0   0.95382647 
   54000    78552.325    300.54535   -437.83948    4481.1348    -18137.18   -13656.045   -14157.636    2837.8974    74660.443   -22075.847    3275.1001    663.56728            0            0    3938.6674   -99574.187   -60.522582      42.8272      42.8272      42.8272            0            0            0   0.95382647 
   56000    78552.325    299.42633    158.29642    4464.4502    -18210.21    -13745.76   -13564.415    2874.8065    74557.174   -22149.424    3275.9364    663.27734            0            0    3939.2138   -99581.405   -60.522582      42.8272      42.8272      42.8272            0            0            0   0.95382647 
   58000    78552.325    295.05307    -606.2679    4399.2448   -18208.715   -13809.471   -14504.014    2919.6453    74509.344   -22149.414    3276.0233    664.67507            0            0    3940.6984   -99578.403   -60.522582      42.8272      42.8272      42.8272            0            0            0   0.95382647 
   60000    78552.325    299.30546   -284.07038    4462.6479   -18313.606   -13850.958   -14176.391    3003.6669    74325.091   -22252.916    3275.1195    664.19103            0            0    3939.3105   -99581.674   -60.522582      42.8272      42.8272      42.8272            0            0            0   0.95382647 
   62000    78552.325    299.79121    386.99512    4469.8904   -18137.613   -13667.723   -13224.379    2922.3758    74580.261   -22077.006    3276.0137    663.37926            0            0    3939.3929   -99579.643   -60.522582      42.8272      42.8272      42.8272            0            0            0   0.95382647 
   64000    78552.325    302.61401   -195.40194    4511.9785   -18208.368   -13696.389   -13920.243    2925.1744    74510.476     -22146.9    3275.4558    663.07659            0            0    3938.5324    -99582.55   -60.522582      42.8272      42.8272      42.8272            0            0            0   0.95382647 
   66000    78552.325    292.16126     -615.318    4356.1278   -18100.016   -13743.889     -14448.8    2888.0196    74649.488   -22038.934    3275.5919     663.3254            0            0    3938.9173   -99576.441   -60.522582      42.8272      42.8272      42.8272            0            0            0   0.95382647 
   68000    78552.325    299.09784    407.18283    4459.5523   -18204.143   -13744.591    -13278.12    2963.0292    74473.792   -22143.475    3276.1322    663.19942            0            0    3939.3316   -99580.296   -60.522582      42.8272      42.8272      42.8272            0            0            0   0.95382647 
   70000    78552.325    303.31837    -137.9692    4522.4804   -18121.594   -13599.113   -13757.172    2875.6053     74637.01   -22059.891    3275.0891    663.20762            0            0    3938.2967   -99572.506   -60.522582      42.8272      42.8272      42.8272            0            0            0   0.95382647 
   72000    78552.325    301.79363   -636.14286    4499.7466    -18188.03   -13688.284   -14417.052    2898.4938    74552.963     -22127.2    3276.1825    662.98745            0            0    3939.1699   -99578.657   -60.522582      42.8272      42.8272      42.8272            0            0            0   0.95382647 
   74000    78552.325    298.00895    266.30645     4443.317   -18125.116   -13681.799   -13376.717    2984.0547    74530.329   -22064.047    3275.5394    663.39182            0            0    3938.9312   -99578.431   -60.522582      42.8272      42.8272      42.8272            0            0            0   0.95382647 
   76000    78552.325    300.58324    52.051676    4481.6997   -18234.245   -13752.546   -13692.915    2941.1334    74461.661   -22173.266    3275.5947    663.42575            0            0    3939.0204    -99576.06   -60.522582      42.8272      42.8272      42.8272            0            0            0   0.95382647 
   78000    78552.325    299.08636   -354.76296    4459.3812   -18322.833   -13863.452    -14269.87    3028.3209    74280.258   -22261.732    3275.8096    663.08951            0            0    3938.8991   -99570.311   -60.522582      42.8272      42.8272      42.8272            0            0            0   0.95382647 
   80000    78552.325    299.03778   -569.44528    4458.6568   -18164.377    -13705.72    -14358.08    2853.9717    74619.873   -22102.837    3275.3044    663.15534            0            0    3938.4598   -99576.682   -60.522582      42.8272      42.8272      42.8272            0            0            0   0.95382647 
   82000    78552.325    294.81074    167.94783    4395.6317   -18165.751    -13770.12   -13577.718    2864.7742     74610.08   -22104.967    3276.0198    663.19607            0            0    3939.2159   -99579.822   -60.522582      42.8272      42.8272      42.8272            0            0            0   0.95382647 
   84000    78552.325    296.49828   -37.466862    4420.7929   -18177.265   -13756.472   -13799.395    2917.4964    74537.465   -22117.006    3275.1103    664.63019            0            0    3939.7405   -99571.967   -60.522582      42.8272      42.8272      42.8272            0            0            0   0.95382647 
   86000    78552.325     297.6322   -182.33847    4437.6996   -18124.112   -13686.412     -13895.3    3001.6413    74507.981   -22063.606    3275.8344    663.65969            0            0    3939.4941   -99573.228   -60.522582      42.8272      42.8272      42.8272            0            0            0   0.95382647 
   88000    78552.325    297.92575    47.979136    4442.0765   -18145.594   -13703.518   -13648.553    2914.3308    74580.566    -22084.18    3275.4455    663.14028            0            0    3938.5858   -99579.077   -60.522582      42.8272      42.8272      42.8272            0            0            0   0.95382647 
   90000    78552.325    295.45746    153.17491    4405.2742   -18215.479   -13810.205   -13634.727     2935.921    74492.219   -22154.149    3275.5068    663.16326            0            0      3938.67   -99582.289   -60.522582      42.8272      42.8272      42.8272            0            0            0   0.95382647 
   92000    78552.325    294.69073   -391.36496    4393.8423   -18175.336   -13781.494   -14229.844    2925.5081    74539.492   -22114.363    3275.8689    663.15735            0            0    3939.0262   -99579.363   -60.522582      42.8272      42.8272      42.8272            0            0            0   0.95382647 
   94000    78552.325     292.7292   -157.75779    4364.5959   -18239.894   -13875.298   -14056.026    2977.9209    74420.709   -22178.634    3275.1382     663.6022            0            0    3938.7404   -99577.264   -60.522582      42.8272      42.8272      42.8272            0            0            0   0.95382647 
   96000    78552.325     300.8194    674.35941    4485.2208   -18179.226   -13694.005   -12921.455    3066.1573    74387.661   -22118.592    3275.8658    663.50037            0            0    3939.3662    -99572.41   -60.522582      42.8272      42.8272      42.8272            0            0            0   0.95382647 
   98000    78552.325    298.60366   -18.363747    4452.1841    -18215.32   -13763.136   -13784.173    2994.1387    74424.778     -22153.6    3275.1543     663.1257            0            0      3938.28   -99572.517   -60.522582      42.8272      42.8272      42.8272            0            0            0   0.95382647 
  100000    78552.325    297.62649   -230.07793    4437.6145   -18129.199   -13691.585   -13955.163    3002.2701    74502.541   -22068.385    3275.7246    663.46119            0            0    3939.1858   -99573.196   -60.522582      42.8272      42.8272      42.8272            0            0            0   0.95382647 
  102000    78552.325    299.45864    205.78982    4464.9319   -18232.197   -13767.265   -13531.511    3009.2044    74397.395   -22171.213     3275.504    663.51215            0            0    3939.0161   -99577.813   -60.522582      42.8272      42.8272      42.8272            0            0            0   0.95382647 
  104000    78552.325    296.53655    498.10468    4421.3634    -18187.92   -13766.556   -13195.925    3109.1841    74343.832   -22126.269    3275.1897    663.15894            0            0    3938.3487   -99579.284   -60.522582      42.8272      42.8272      42.8272            0            0            0   0.95382647 
  106000    78552.325    294.37076   -207.82052    4389.0715   -18211.846   -13822.774   -14060.855    3021.9877    74405.312   -22150.879    3275.9971    663.03588            0            0     3939.033   -99578.179   -60.522582      42.8272      42.8272      42.8272            0            0            0   0.95382647 
  108000    78552.325    297.40277   -275.74924    4434.2788   -18104.852   -13670.573   -13986.473    2862.5904    74669.708   -22043.009     3275.085    663.07212            0            0    3938.1571   -99575.307   -60.522582      42.8272      42.8272      42.8272            0            0            0   0.95382647 
  110000    78552.325    298.42269    483.47665    4449.4858   -18173.948   -13724.462   -13170.589    3000.8395    74471.614   -22113.037    3275.8599    663.22854            0            0    3939.0884    -99585.49   -60.522582      42.8272      42.8272      42.8272            0            0            0   0.95382647 
  112000    78552.325    292.48005    -342.3212     4360.881   -18193.015   -13832.134   -14224.299    2954.0497    74488.877   -22132.481    3275.6051    663.86135            0            0    3939.4664   -99575.408   -60.522582      42.8272      42.8272      42.8272            0            0            0   0.95382647 
  114000    78552.325    304.09104   -340.95293     4534.001   -18255.279   -13721.278   -14111.875    2925.9299    74459.709   -22194.282    3275.2487    663.75441            0            0    3939.0031   -99579.921   -60.522582      42.8272      42.8272      42.8272            0            0            0   0.95382647 
  116000    78552.325      298.593        438.6    4452.0251   -18139.059   -13687.034   -13184.572    3007.3414    74494.682   -22078.034    3275.8181    663.15692            0            0     3938.975   -99580.058   -60.522582      42.8272      42.8272      42.8272            0            0            0   0.95382647 
  118000    78552.325    294.66175   -273.80655    4393.4102   -18104.868   -13711.458   -14025.132    2862.1825    74674.525   -22043.172     3275.238    663.06579            0            0    3938.3038   -99579.879   -60.522582      42.8272      42.8272      42.8272            0            0            0   0.95382647 
  120000    78552.325     299.3842   -357.53862     4463.822   -18278.402    -13814.58   -14224.178    2930.2536    74432.866   -22216.637    3275.1793    663.05618            0            0    3938.2355   -99579.757   -60.522582      42.8272      42.8272      42.8272            0            0            0   0.95382647 
  122000    78552.325    294.49361    554.32046    4390.9032   -18116.939   -13726.036   -13091.003    3062.7768    74458.934   -22056.143    3275.9162    663.28837            0            0    3939.2046   -99577.854   -60.522582      42.8272      42.8272      42.8272            0            0            0   0.95382647 
  124000    78552.325    296.76094    171.81524    4424.7092   -18213.397   -13788.688   -13591.855    3063.3569    74367.931   -22151.603    3275.1134    663.09285            0            0    3938.2062   -99582.891   -60.522582      42.8272      42.8272      42.8272            0            0            0   0.95382647 
  126000    78552.325    296.86137   -366.48662    4426.2065   -18124.184   -13697.978   -14117.826    2954.3186    74558.728   -22063.791    3275.9964    663.61029            0            0    3939.6066   -99576.837   -60.522582      42.8272      42.8272      42.8272            0            0            0   0.95382647 
  128000    78552.325    298.16757     -199.723    4445.6821   -18161.315   -13715.633   -13944.437    2836.6769    74639.506   -22101.032    3275.4259    664.29093            0            0    3939.7168   -99577.215   -60.522582      42.8272      42.8272      42.8272            0            0            0   0.95382647 
  130000    78552.325    296.93265    235.09583    4427.2694    -18171.24   -13743.971   -13474.644    3008.3839    74461.976    -22110.09    3275.1318    663.71761            0            0    3938.8494    -99580.45   -60.522582      42.8272      42.8272      42.8272            0            0            0   0.95382647 
  132000    78552.325     303.7653   -262.59582    4529.1443   -18179.782   -13650.638   -13951.469    2973.2937    74484.352   -22118.709    3275.8808    663.04581            0            0    3938.9266   -99576.355   -60.522582      42.8272      42.8272      42.8272            0            0            0   0.95382647 
  134000    78552.325    294.95469    147.01158    4397.7779   -18141.256   -13743.478    -13575.06    2967.1137    74530.019    -22079.87    3275.4007    663.21396            0            0    3938.6147   -99577.003   -60.522582      42.8272      42.8272      42.8272            0            0            0   0.95382647 
  136000    78552.325    301.37189   -266.39313    4493.4585   -18192.319    -13698.86   -14004.042     2813.181    74631.771   -22130.722    3275.2383    663.16483            0            0    3938.4031   -99575.674   -60.522582      42.8272      42.8272      42.8272            0            0            0   0.95382647 
  138000    78552.325    301.16389   -323.04612    4490.3572   -18169.828   -13679.471   -14049.554    2944.3022    74526.451   -22108.556    3275.7197    663.00828            0            0     3938.728   -99579.309   -60.522582      42.8272      42.8272      42.8272            0            0            0   0.95382647 
  140000    78552.325    293.89078   -280.56312    4381.9151   -18214.546   -13832.631   -14154.046    2945.8627    74476.349   -22152.775    3275.1533    663.07523            0            0    3938.2285   -99574.986   -60.522582      42.8272      42.8272      42.8272            0            0            0   0.95382647 
  142000    78552.325     298.1036    81.475837    4444.7283   -18127.751   -13683.022   -13589.683    2893.5409    74614.397   -22070.388    3275.5405    667.09683            0            0    3942.6373   -99578.326   -60.522582      42.8272      42.8272      42.8272            0            0            0   0.95382647 
  144000    78552.325    298.41863    -514.5812    4449.4253   -18236.901   -13787.476   -14376.983    2906.9643    74493.819    -22175.49    3275.4415    663.14752            0            0    3938.5891   -99576.273   -60.522582      42.8272      42.8272      42.8272            0            0            0   0.95382647 
  146000    78552.325    297.58387   -291.51196    4436.9791   -18202.422   -13765.443   -14099.401      2955.68    74477.423   -22140.827    3275.3067     663.0988            0            0    3938.4055    -99573.93   -60.522582      42.8272      42.8272      42.8272            0            0            0   0.95382647 
  148000    78552.325    295.94941   -242.12763    4412.6093   -18165.903   -13753.293   -14030.676    2798.9945    74670.982    -22104.65     3275.562    663.18518            0            0    3938.7472   -99574.626   -60.522582      42.8272      42.8272      42.8272            0            0            0   0.95382647 
  150000    78552.325    297.96785   -148.49464    4442.7041   -18032.384    -13589.68   -13759.797    2844.8826    74763.996   -21970.713     3275.101    663.22725            0            0    3938.3282   -99579.591   -60.522582      42.8272      42.8272      42.8272            0            0            0   0.95382647 
  152000    78552.325    300.12212   -179.23668    4474.8244   -18080.503   -13605.678   -13811.013     2960.739    74598.494   -22019.193    3275.6629    663.02729            0            0    3938.6902   -99578.425   -60.522582      42.8272      42.8272      42.8272            0            0            0   0.95382647 
  154000    78552.325    294.86501    27.441701    4396.4408   -18257.897   -13861.456   -13830.019    3005.2438    74375.297   -22196.106    3275.1131      663.096            0            0    3938.2091   -99576.647   -60.522582      42.8272      42.8272      42.8272            0            0            0   0.95382647 
  156000    78552.325    304.02951    558.45571    4533.0836   -18124.146   -13591.063   -12951.293    3019.5892    74493.088   -22062.908    3275.4536    663.30821            0            0    3938.7618   -99575.585   -60.522582      42.8272      42.8272      42.8272            0            0            0   0.95382647 
  158000    78552.325    299.73257   -456.92248    4469.0162    -18289.49   -13820.474   -14343.926     2906.678    74443.207   -22227.887    3275.3054    663.09171            0            0    3938.3971   -99577.772   -60.522582      42.8272      42.8272      42.8272            0            0            0   0.95382647 
  160000    78552.325    304.64856   -558.35429    4542.3136   -18342.166   -13799.853   -14439.506    2898.5503    74400.749   -22280.592    3275.2617    663.16416            0            0    3938.4259   -99579.892   -60.522582      42.8272      42.8272      42.8272            0            0            0   0.95382647 
  162000    78552.325    298.29004    291.83179    4447.5081   -18134.904   -13687.396   -13353.072    2946.8099    74557.292   -22073.769    3275.5066    663.35828            0            0    3938.8649    -99577.87   -60.522582      42.8272      42.8272      42.8272            0            0            0   0.95382647 
  164000    78552.325    299.82568   -287.88967    4470.4044   -18137.778   -13667.373   -13997.181    2906.9094    74586.021   -22076.109    3275.0853    663.24558            0            0    3938.3309   -99569.039   -60.522582      42.8272      42.8272      42.8272            0            0            0   0.95382647 
  166000    78552.325    297.85426    -699.9679    4441.0105   -18200.145   -13759.135   -14561.022     2835.231    74604.897   -22139.019    3275.5313    663.34182            0            0    3938.8731   -99579.147   -60.522582      42.8272      42.8272      42.8272            0            0            0   0.95382647 
  168000    78552.325    298.84072     14.04566    4455.7187   -18212.288   -13756.569   -13740.478    2949.1046    74475.939   -22150.753    3275.2063    663.25881            0            0    3938.4651   -99575.796   -60.522582      42.8272      42.8272      42.8272            0            0            0   0.95382647 
  170000    78552.325    292.19067    109.88348    4356.5663   -18132.444   -13775.877   -13649.994    2901.8447    74597.986   -22071.057    3275.3529    663.26074            0            0    3938.6137   -99570.888   -60.522582      42.8272      42.8272      42.8272            0            0            0   0.95382647 
  172000    78552.325    299.79507   -115.78864    4469.9481   -18169.737   -13699.789   -13832.437    3025.1478    74446.096   -22108.251    3275.4714    663.04339            0            0    3938.5148   -99579.496   -60.522582      42.8272      42.8272      42.8272            0            0            0   0.95382647 
  174000    78552.325    305.19408   -311.43249    4550.4474   -18231.256   -13680.809   -14037.588    2933.0304    74475.528   -22170.779    3275.1311    664.39188            0            0     3939.523   -99579.337   -60.522582      42.8272      42.8272      42.8272            0            0            0   0.95382647 
  176000    78552.325    296.73938   -8.2459276    4424.3877   -18135.604   -13711.216   -13720.663    2873.2246    74630.726   -22074.188    3275.4522    663.13164            0            0    3938.5838   -99578.138   -60.522582      42.8272      42.8272      42.8272            0            0            0   0.95382647 
  178000    78552.325    305.22045    14.599597    4550.8406   -18212.155   -13661.314   -13644.589     2998.465    74431.654   -22150.619    3275.3089    663.15557            0            0    3938.4645   -99580.738   -60.522582      42.8272      42.8272      42.8272            0            0            0   0.95382647 
  180000    78552.325    299.52127   -137.02261    4465.8656   -18179.973   -13714.107   -13871.081    2986.6127    74470.034   -22118.665    3275.3194    663.37239            0            0    3938.6918   -99575.311   -60.522582      42.8272      42.8272      42.8272            0            0            0   0.95382647 
  182000    78552.325    300.64708    133.11801    4482.6516   -18170.262    -13687.61   -13535.109     2944.465    74526.092   -22109.459    3275.3475    663.84977            0            0    3939.1972   -99580.016   -60.522582      42.8272      42.8272      42.8272            0            0            0   0.95382647 
  184000    78552.325    299.60882   -4.6533339    4467.1711    -18048.17   -13580.999    -13586.33    2852.7307     74737.16   -21986.857      3275.13    663.55693            0            0    3938.6869   -99576.747   -60.522582      42.8272      42.8272      42.8272            0            0            0   0.95382647 
  186000    78552.325     294.2543   -478.48918    4387.3351   -18153.757   -13766.422   -14314.582    2886.3568    74596.032   -22092.371    3275.3552    663.25899            0            0    3938.6142    -99574.76   -60.522582      42.8272      42.8272      42.8272            0            0            0   0.95382647 
  188000    78552.325    298.30078   -428.14234    4447.6682   -18257.558   -13809.889   -14300.371    2866.8505    74512.484   -22195.729    3275.0924    663.07941            0            0    3938.1718   -99575.064   -60.522582      42.8272      42.8272      42.8272            0            0            0   0.95382647 
  190000    78552.325    296.13233    -345.2846    4415.3365   -18131.494   -13716.158   -14111.718    2728.2671    74776.686   -22070.042    3275.2903    663.25728            0            0    3938.5476   -99574.995   -60.522582      42.8272      42.8272      42.8272            0            0            0   0.95382647 
  192000    78552.325    292.44481    207.73487    4360.3556   -18141.732   -13781.377   -13543.394    3041.5883      74453.6    -22080.68    3275.1364    663.81158            0            0     3938.948   -99575.868   -60.522582      42.8272      42.8272      42.8272            0            0            0   0.95382647 
  194000    78552.325    300.85214   -360.47318     4485.709   -18211.451   -13725.742   -14138.702    2909.6633    74523.343   -22150.208    3275.3658    663.39169            0            0    3938.7575   -99583.215   -60.522582      42.8272      42.8272      42.8272            0            0            0   0.95382647 
  196000    78552.325    299.92748    221.32025    4471.9223   -18185.856   -13713.934   -13460.388    3022.1608    74433.195   -22124.756    3275.2267    663.67274            0            0    3938.8995   -99580.112   -60.522582      42.8272      42.8272      42.8272            0            0            0   0.95382647 
  198000    78552.325     299.9095    137.46763    4471.6542   -18133.395   -13661.741   -13504.257    2971.2986    74533.805   -22071.692    3275.1391    663.15833            0            0    3938.2974   -99576.796   -60.522582      42.8272      42.8272      42.8272            0            0            0   0.95382647 
  200000    78552.325    298.07246   -329.63477    4444.2639   -18092.376   -13648.112   -14025.743     2916.233    74621.291    -22031.54    3275.4134    663.75121            0            0    3939.1646   -99569.064   -60.522582      42.8272      42.8272      42.8272            0            0            0   0.95382647 
  202000    78552.325    300.48001    -269.0171    4480.1604   -18340.605   -13860.444   -14168.632     2957.986    74344.723   -22279.044    3275.0869    663.35252            0            0    3938.4394   -99581.753   -60.522582      42.8272      42.8272      42.8272            0            0            0   0.95382647 
  204000    78552.325    295.04432    197.86564    4399.1144   -18181.468   -13782.353   -13555.677    3000.4717    74455.085   -22119.975    3275.2208    663.28645            0            0    3938.5072   -99575.531   -60.522582      42.8272      42.8272      42.8272            0            0            0   0.95382647 
  206000    78552.325     301.3634    -344.3652    4493.3319   -18200.752    -13707.42   -14101.927    2880.1598    74556.351   -22139.029    3275.2344    663.04244            0            0    3938.2768    -99575.54   -60.522582      42.8272      42.8272      42.8272            0            0            0   0.95382647 
  208000    78552.325    304.67548   -530.50231     4542.715   -18216.287   -13673.572   -14281.318    2860.8688    74561.253   -22154.608    3275.2697    663.05146            0            0    3938.3211    -99576.73   -60.522582      42.8272      42.8272      42.8272            0            0            0   0.95382647 
  210000    78552.325    295.89168   -246.13822    4411.7484   -18129.579   -13717.831   -13999.808    2881.6004    74626.653   -22068.508    3275.2775    663.65166            0            0    3938.9292   -99576.762   -60.522582      42.8272      42.8272      42.8272            0            0            0   0.95382647 
  212000    78552.325    300.16932   -125.41841    4475.5281   -18219.133   -13743.605   -13887.285    2933.4612    74488.783   -22158.052     3275.091    663.82779            0            0    3938.9188   -99580.296   -60.522582      42.8272      42.8272      42.8272            0            0            0   0.95382647 
  214000    78552.325    297.40571   -205.18166    4434.3226   -18186.542   -13752.219   -13987.276    2972.9318    74473.717   -22125.168     3275.374    663.25208            0            0     3938.626   -99571.817   -60.522582      42.8272      42.8272      42.8272            0            0            0   0.95382647 
  216000    78552.325    297.51846   -138.14666    4436.0038   -18196.616   -13760.613   -13918.874     2894.694    74544.122    -22135.03    3275.1908    663.22272            0            0    3938.4136   -99573.845   -60.522582      42.8272      42.8272      42.8272            0            0            0   0.95382647 
  218000    78552.325     292.0023   -371.45824    4353.7577   -18217.991   -13864.234   -14289.778    2825.3621    74596.248   -22156.627    3275.1601    663.47506            0            0    3938.6352   -99578.237   -60.522582      42.8272      42.8272      42.8272            0            0            0   0.95382647 
  220000    78552.325     294.6725   -458.91106    4393.5705   -18184.043   -13790.472   -14316.203    2884.0416    74571.086   -22122.523    3275.4519    663.02857            0            0    3938.4805   -99577.651   -60.522582      42.8272      42.8272      42.8272            0            0            0   0.95382647 
  222000    78552.325    301.05635   -295.89542    4488.7538   -18156.939   -13668.185   -14007.165    2884.8525    74596.802    -22095.15    3275.0862    663.12469            0            0    3938.2109   -99576.805   -60.522582      42.8272      42.8272      42.8272            0            0            0   0.95382647 
  224000    78552.325    296.87712   -189.56286    4426.4414   -18221.742   -13795.301   -14012.465    2841.7089    74577.957   -22160.212    3275.3261      663.144            0            0    3938.4701   -99579.878   -60.522582      42.8272      42.8272      42.8272            0            0            0   0.95382647 
  226000    78552.325    297.52741   -310.86957    4436.1372   -18229.996   -13793.859   -14149.993    2948.8934    74460.235   -22169.015    3275.3292    663.68952            0            0    3939.0187   -99578.143   -60.522582      42.8272      42.8272      42.8272            0            0            0   0.95382647 
  228000    78552.325    297.44123   -246.77308    4434.8523   -18152.095   -13717.243   -13999.947    2890.8163    74596.979   -22090.308    3275.1061     663.1067            0            0    3938.2128   -99578.104   -60.522582      42.8272      42.8272      42.8272            0            0            0   0.95382647 
  230000    78552.325    296.23638    153.03266    4416.8879   -18141.228    -13724.34   -13549.025    2969.8304    74529.081   -22080.559    3275.3051    664.02541            0            0    3939.3305    -99579.47   -60.522582      42.8272      42.8272      42.8272            0            0            0   0.95382647 
  232000    78552.325    292.70304    189.44482    4364.2058   -18170.052   -13805.846   -13588.817     3071.125    74395.771   -22108.246    3275.1333    663.06062            0            0     3938.194   -99575.143   -60.522582      42.8272      42.8272      42.8272            0            0            0   0.95382647 
  234000    78552.325    300.58261   -387.66994    4481.6903   -18288.057   -13806.366   -14250.483    2869.7395    74486.811   -22226.334    3275.2276    663.05028            0            0    3938.2778   -99582.885   -60.522582      42.8272      42.8272      42.8272            0            0            0   0.95382647 
  236000    78552.325    297.86627    36.736871    4441.1896    -18270.24   -13829.051   -13786.965    2953.3035    74416.101     -22208.6    3275.2391    663.12022            0            0    3938.3594   -99578.004   -60.522582      42.8272      42.8272      42.8272            0            0            0   0.95382647 
  238000    78552.325    294.88382   -72.272223    4396.7213   -18133.415   -13736.693   -13819.489    2887.0618    74617.539    -22071.64    3275.1196    663.10614            0            0    3938.2257   -99576.241   -60.522582      42.8272      42.8272      42.8272            0            0            0   0.95382647 
  240000    78552.325    294.54084    -114.7104    4391.6075   -18149.598   -13757.991   -13889.404    3024.9573     74461.87   -22088.662    3275.4515    663.61191            0            0    3939.0634   -99575.488   -60.522582      42.8272      42.8272      42.8272            0            0            0   0.95382647 
  242000    78552.325    292.93386   -150.22154    4367.6473   -18128.863   -13761.216   -13933.311    2888.6537    74625.413   -22067.942    3275.1328    663.94618            0            0     3939.079   -99582.009   -60.522582      42.8272      42.8272      42.8272            0            0            0   0.95382647 
  244000    78552.325    294.88994   -81.300228    4396.8124   -18139.652   -13742.839   -13835.977    2883.2005     74617.05    -22078.22     3275.159    663.40903            0            0    3938.5681   -99578.471   -60.522582      42.8272      42.8272      42.8272            0            0            0   0.95382647 
  246000    78552.325    298.89865   -134.42518    4456.5824   -18240.011   -13783.428   -13937.426    2979.4425    74414.712   -22178.611    3275.3462    663.25472            0            0    3938.6009   -99572.766   -60.522582      42.8272      42.8272      42.8272            0            0            0   0.95382647 
  248000    78552.325    301.72883   -87.989135    4498.7804   -18098.837   -13600.056   -13700.857    2921.4434    74619.127   -22037.497    3275.0878    663.57188            0            0    3938.6597   -99578.067   -60.522582      42.8272      42.8272      42.8272            0            0            0   0.95382647 
  250000    78552.325    299.62346   -271.73626    4467.3894   -18292.642   -13825.252   -14136.555    2863.6761    74481.147   -22231.418    3275.1766    663.60013            0            0    3938.7767   -99576.242   -60.522582      42.8272      42.8272      42.8272            0            0            0   0.95382647 
  252000    78552.325    300.86203   -159.14528    4485.8564   -18298.424   -13812.568   -13994.885    2966.7458    74377.609   -22236.726    3275.2015     663.1003            0            0    3938.3018   -99581.081   -60.522582      42.8272      42.8272      42.8272            0            0            0   0.95382647 
  254000    78552.325    299.09941   -412.83213    4459.5758   -18260.122   -13800.547   -14273.489    2906.6936    74474.939   -22198.315    3275.1279    663.06517            0            0    3938.1931   -99579.948   -60.522582      42.8272      42.8272      42.8272            0            0            0   0.95382647 
  256000    78552.325    300.21201    76.844953    4476.1646   -18181.267   -13705.103   -13617.069    2885.3282    74570.289   -22119.798    3275.3425    663.18819            0            0    3938.5307   -99575.415   -60.522582      42.8272      42.8272      42.8272            0            0            0   0.95382647 
  258000    78552.325    297.49305   -478.31713    4435.6248   -18242.794   -13807.169   -14355.132    2822.9451     74572.63    -22180.99    3275.1062    663.08996            0            0    3938.1962   -99576.566   -60.522582      42.8272      42.8272      42.8272            0            0            0   0.95382647 
  260000    78552.325    297.79102   -88.590653    4440.0676   -18207.291   -13767.223   -13868.713    2986.7782    74446.306   -22147.761    3275.1436    665.32655            0            0    3940.4701   -99580.844   -60.522582      42.8272      42.8272      42.8272            0            0            0   0.95382647 
  262000    78552.325    297.28479    10.853452    4432.5197   -18131.994   -13699.475   -13687.041    2886.6471    74618.413    -22071.33    3275.3246    664.01127            0            0    3939.3358    -99576.39   -60.522582      42.8272      42.8272      42.8272            0            0            0   0.95382647 
  264000    78552.325    300.28579   -79.520536    4477.2647    -18230.83   -13753.565   -13844.664    2999.0744    74409.003   -22169.626    3275.2075    663.58869            0            0    3938.7962   -99577.703   -60.522582      42.8272      42.8272      42.8272            0            0            0   0.95382647 
  266000    78552.325     291.9898   -564.64655    4353.5714   -18215.398   -13861.827   -14508.689    2815.1481    74605.344   -22154.024    3275.1661    663.45957            0            0    3938.6257   -99574.516   -60.522582      42.8272      42.8272      42.8272            0            0            0   0.95382647 
  268000    78552.325    296.27431   -373.85612    4417.4535   -18160.129   -13742.675   -14170.967    2756.5541    74727.579    -22098.83    3275.4016    663.29914            0            0    3938.7008   -99582.962   -60.522582      42.8272      42.8272      42.8272            0            0            0   0.95382647 
  270000    78552.325    293.93405   -448.14417    4382.5602   -18176.444   -13793.884    -14307.28    2844.7429    74620.347   -22114.628    3275.1307    663.05242            0            0    3938.1831   -99579.717   -60.522582      42.8272      42.8272      42.8272            0            0            0   0.95382647 
  272000    78552.325    296.84934   -534.55685    4426.0271   -18220.398   -13794.371   -14406.762    2909.9003    74510.251   -22159.027    3275.3535    663.27496            0            0    3938.6284   -99579.178   -60.522582      42.8272      42.8272      42.8272            0            0            0   0.95382647 
  274000    78552.325    292.98133    -459.3868     4368.355   -18225.943   -13857.588   -14383.864    2829.1892    74586.398   -22164.367     3275.241    663.18234            0            0    3938.4233   -99579.954   -60.522582      42.8272      42.8272      42.8272            0            0            0   0.95382647 
  276000    78552.325    295.97439   -275.69429    4412.9816   -18261.666   -13848.685   -14164.521    2832.7533    74550.291   -22200.271    3275.1536    663.45094            0            0    3938.6045   -99583.315   -60.522582      42.8272      42.8272      42.8272            0            0            0   0.95382647 
  278000    78552.325    299.43477   -215.98774    4464.5759   -18221.139   -13756.563       -14004    2959.8429    74456.562   -22159.859    3275.4391    663.28088            0            0      3938.72   -99576.264   -60.522582      42.8272      42.8272      42.8272            0            0            0   0.95382647 
  280000    78552.325    297.16506   -456.37912    4430.7345   -18221.765    -13791.03   -14313.861    2760.2639    74658.608   -22160.112    3275.1791    663.16797            0            0    3938.3471   -99578.984   -60.522582      42.8272      42.8272      42.8272            0            0            0   0.95382647 
  282000    78552.325    291.26449    16.537715     4342.757   -18140.379   -13797.622   -13778.677    2908.1005     74591.28   -22078.667    3275.1799    663.10824            0            0    3938.2882   -99578.048   -60.522582      42.8272      42.8272      42.8272            0            0            0   0.95382647 
  284000    78552.325    293.47569   -493.76054     4375.726   -18212.357   -13836.631   -14402.286    2918.3788     74505.18   -22150.824    3275.3675     663.0991            0            0    3938.4666   -99574.383   -60.522582      42.8272      42.8272      42.8272            0            0            0   0.95382647 
  286000    78552.325    296.66631    220.59996    4423.2982   -18039.385   -13616.087   -13363.366    2993.0746    74605.781    -21977.54    3275.0885    663.06697            0            0    3938.1554   -99576.396   -60.522582      42.8272      42.8272      42.8272            0            0            0   0.95382647 
  288000    78552.325    298.94217   -75.145657    4457.2314   -18211.424   -13754.193    -13840.28    2902.2859    74526.164   -22150.857    3275.4081     664.0249            0            0     3939.433   -99579.307   -60.522582      42.8272      42.8272      42.8272            0            0            0   0.95382647 
  290000    78552.325    295.65673   -496.70555    4408.2453   -18264.401   -13856.156   -14425.185    2883.5952    74487.684   -22202.957    3275.2967    663.25906            0            0    3938.5557   -99574.236   -60.522582      42.8272      42.8272      42.8272            0            0            0   0.95382647 
  292000    78552.325    296.90347    29.029103    4426.8343   -18208.326   -13781.492   -13748.236    3043.6907    74382.138   -22147.019    3275.2343     663.4585            0            0    3938.6928   -99572.847   -60.522582      42.8272      42.8272      42.8272            0            0            0   0.95382647 
  294000    78552.325    297.87835   -119.65969    4441.3698   -18117.137   -13675.768    -13812.85    2844.7046    74677.116   -22057.137    3275.4055    664.59447            0            0    3939.9999   -99578.958   -60.522582      42.8272      42.8272      42.8272            0            0            0   0.95382647 
  296000    78552.325    294.05252   -241.88017    4384.3266   -18191.373   -13807.046   -14084.146    2889.6037    74558.238   -22129.747    3275.1111    663.26331            0            0    3938.3744   -99577.589   -60.522582      42.8272      42.8272      42.8272            0            0            0   0.95382647 
  298000    78552.325    299.23598   -485.36944    4461.6121   -18212.108   -13750.496   -14306.538    2921.6805    74501.652   -22151.554    3275.4898    663.95597            0            0    3939.4458   -99574.886   -60.522582      42.8272      42.8272      42.8272            0            0            0   0.95382647 
  300000    78552.325    298.03366     27.64665    4443.6855   -18188.519   -13744.834   -13713.162    2949.8979    74493.015   -22127.125    3275.3668    663.23865            0            0    3938.6054   -99570.038   -60.522582      42.8272      42.8272      42.8272            0            0            0   0.95382647 
  302000    78552.325    293.49658    223.93362    4376.0375    -18056.58   -13680.542   -13424.003    3010.5856    74569.868   -21995.204    3275.1585     663.4662            0            0    3938.6247   -99575.658   -60.522582      42.8272      42.8272      42.8272            0            0            0   0.95382647 
  304000    78552.325    300.48096     -509.402    4480.1746   -18170.435   -13690.261   -14273.834    2863.1336    74602.008   -22108.938    3275.4704    663.03256            0            0     3938.503    -99574.08   -60.522582      42.8272      42.8272      42.8272            0            0            0   0.95382647 
  306000    78552.325    295.72956    73.452646    4409.3313   -18258.971    -13849.64   -13765.492    3031.2483    74351.753   -22198.398    3275.1146    664.31166            0            0    3939.4263   -99581.399   -60.522582      42.8272      42.8272      42.8272            0            0            0   0.95382647 
  308000    78552.325     294.0902    204.38381    4384.8884   -18254.115   -13869.226   -13635.083    3026.4226    74357.948   -22192.711    3275.2853    663.31137            0            0    3938.5966   -99577.082   -60.522582      42.8272      42.8272      42.8272            0            0            0   0.95382647 
  310000    78552.325    298.70814   -387.95941    4453.7419   -18172.583   -13718.841   -14163.289    2894.5241    74571.965   -22111.149    3275.4988    663.06815            0            0    3938.5669   -99577.639   -60.522582      42.8272      42.8272      42.8272            0            0            0   0.95382647 
  312000    78552.325    302.09443   -65.198899    4504.2315   -18313.641    -13809.41   -13884.102    2974.2761     74353.13   -22252.029    3275.0872    663.30023            0            0    3938.3874   -99579.435   -60.522582      42.8272      42.8272      42.8272            0            0            0   0.95382647 
  314000    78552.325    297.06736    94.691027    4429.2778   -18211.007    -13781.73   -13673.251     2958.254    74472.641   -22149.818    3275.4644    663.34593            0            0    3938.8103   -99580.713   -60.522582      42.8272      42.8272      42.8272            0            0            0   0.95382647 
  316000    78552.325    298.17807   -484.86379    4445.8385   -18209.621   -13763.782   -14319.244    2836.5195    74591.807   -22148.236    3275.2688      663.347            0            0    3938.6158   -99576.563   -60.522582      42.8272      42.8272      42.8272            0            0            0   0.95382647 
  318000    78552.325     299.5098   -541.82979    4465.6946   -18199.626   -13733.931   -14354.654    2878.2609    74562.168   -22137.915    3275.2203    663.06923            0            0    3938.2895   -99578.344   -60.522582      42.8272      42.8272      42.8272            0            0            0   0.95382647 
  320000    78552.325    294.59274   -161.71186    4392.3812   -18286.986   -13894.605   -14079.863    2892.2553    74464.815   -22225.905    3275.3565    663.56212            0            0    3938.9186   -99582.975   -60.522582      42.8272      42.8272      42.8272            0            0            0   0.95382647 
  322000    78552.325    303.99608   -247.00648    4532.5852   -18233.574   -13700.989    -13983.96    2938.9413    74469.131   -22171.747     3275.087    663.08619            0            0    3938.1732   -99579.819   -60.522582      42.8272      42.8272      42.8272            0            0            0   0.95382647 
  324000    78552.325    293.57554    -353.9198    4377.2148   -18203.489   -13826.274   -14231.727    2901.0298    74532.722   -22142.103     3275.534    663.07971            0            0    3938.6137   -99575.854   -60.522582      42.8272      42.8272      42.8272            0            0            0   0.95382647 
  326000    78552.325    298.25485   -149.95431    4446.9833   -18143.437   -13696.453   -13868.242    2914.4249    74583.914   -22081.664    3275.0934    663.13421            0            0    3938.2276   -99580.004   -60.522582      42.8272      42.8272      42.8272            0            0            0   0.95382647 
  328000    78552.325    291.90289   -274.37693    4352.2755   -18082.986   -13730.711   -14045.038    2775.4439     74779.03   -22021.633    3275.5121    663.13499            0            0    3938.6471   -99576.107   -60.522582      42.8272      42.8272      42.8272            0            0            0   0.95382647 
  330000    78552.325    299.44081   -637.45525     4464.666   -18162.437   -13697.771   -14428.043    2793.7699    74684.916   -22101.019    3275.3998    663.18247            0            0    3938.5823   -99579.706   -60.522582      42.8272      42.8272      42.8272            0            0            0   0.95382647 
  332000    78552.325    302.08723   -406.55265    4504.1241   -18262.749   -13758.625   -14224.374    2954.0495    74423.539   -22201.235    3275.3621    663.12419            0            0    3938.4863   -99578.824   -60.522582      42.8272      42.8272      42.8272            0            0            0   0.95382647 
  334000    78552.325    298.95144   -156.88866    4457.3696   -18162.552   -13705.183   -13884.915    2794.7331    74685.588   -22101.597    3275.6586    663.38665            0            0    3939.0453   -99581.918   -60.522582      42.8272      42.8272      42.8272            0            0            0   0.95382647 
  336000    78552.325    296.44694   -94.901801    4420.0274   -18132.709   -13712.682   -13821.402    2859.5579    74644.286   -22070.992    3275.0852    663.19802            0            0    3938.2832   -99574.837   -60.522582      42.8272      42.8272      42.8272            0            0            0   0.95382647 
  338000    78552.325    302.53771   -389.92566    4510.8408   -18137.814   -13626.973   -14073.674    2922.4029    74574.261   -22076.527    3275.5946     663.1185            0            0    3938.7131   -99573.191   -60.522582      42.8272      42.8272      42.8272            0            0            0   0.95382647 
  340000    78552.325    300.69906    209.43156    4483.4266    -18099.67   -13616.244   -13376.318    3011.8779    74525.274   -22038.947    3275.2584    664.01797            0            0    3939.2763   -99576.099   -60.522582      42.8272      42.8272      42.8272            0            0            0   0.95382647 
  342000    78552.325    299.32964   -100.11214    4463.0085   -18228.663   -13765.655   -13880.344    2943.2059      74471.2   -22167.802    3275.0922    664.04673            0            0     3939.139   -99582.209   -60.522582      42.8272      42.8272      42.8272            0            0            0   0.95382647 
  344000    78552.325    293.34092   -599.15038    4373.7166   -18148.435   -13774.719   -14461.108    2829.7152     74650.94   -22087.206    3275.6852    663.08538            0            0    3938.7706   -99567.861   -60.522582      42.8272      42.8272      42.8272            0            0            0   0.95382647 
  346000    78552.325    299.68803   -314.59746     4468.352   -18286.888   -13818.536   -14178.941    2907.8503    74441.812    -22225.42    3275.1069    663.42498            0            0    3938.5319   -99575.083   -60.522582      42.8272      42.8272      42.8272            0            0            0   0.95382647 
  348000    78552.325    297.66296    196.29442    4438.1583   -18246.187   -13808.029   -13583.153    2928.8851    74462.907   -22184.997    3275.4749    663.33482            0            0    3938.8098   -99576.789   -60.522582      42.8272      42.8272      42.8272            0            0            0   0.95382647 
  350000    78552.325     296.4268   -568.35871     4419.727    -18190.44   -13770.713   -14421.828    2857.7979    74591.034   -22128.865    3275.4004    663.02469            0            0    3938.4251   -99577.697   -60.522582      42.8272      42.8272      42.8272            0            0            0   0.95382647 
  352000    78552.325    299.75528   -510.58493    4469.3548   -18194.768   -13725.413   -14310.342     2864.704    74575.858   -22133.183    3275.2354    663.17923            0            0    3938.4146   -99573.745   -60.522582      42.8272      42.8272      42.8272            0            0            0   0.95382647 
  354000    78552.325     300.2747    392.45708    4477.0993   -18259.553   -13782.453   -13332.853    3075.3447    74304.921   -22198.823    3275.5242    663.74571            0            0    3939.2699   -99579.088   -60.522582      42.8272      42.8272      42.8272            0            0            0   0.95382647 
  356000    78552.325    305.29412   -195.16163    4551.9389   -18268.492   -13716.553   -13940.131    2918.3239    74453.164   -22206.698    3275.1244    663.08172            0            0    3938.2061   -99578.186   -60.522582      42.8272      42.8272      42.8272            0            0            0   0.95382647 
  358000    78552.325    297.95758   -851.42604    4442.5511   -18239.525   -13796.974   -14772.372    2831.2544    74567.732   -22178.137    3275.6008    663.01197            0            0    3938.6127   -99577.124   -60.522582      42.8272      42.8272      42.8272            0            0            0   0.95382647 
  360000    78552.325    293.69777   -154.24331    4379.0372   -18152.893   -13773.856   -13950.558    2851.2065    74630.551    -22094.53    3275.4731    666.16341            0            0    3941.6365   -99576.287   -60.522582      42.8272      42.8272      42.8272            0            0            0   0.95382647 
  362000    78552.325    299.77943   -312.43057    4469.7148   -18108.709   -13638.994   -13996.916    2802.4712    74725.804   -22047.357    3275.0975    663.55054            0            0     3938.648   -99575.632   -60.522582      42.8272      42.8272      42.8272            0            0            0   0.95382647 
  364000    78552.325    299.07083   -636.74579    4459.1496   -18315.466   -13856.317   -14585.776    2883.1172     74441.67   -22254.197    3275.5329    663.19749            0            0    3938.7304   -99578.984   -60.522582      42.8272      42.8272      42.8272            0            0            0   0.95382647 
  366000    78552.325     295.9071    140.52637    4411.9784   -18217.186   -13805.208    -13644.22    2904.4997    74512.393   -22155.972    3275.4955    663.29047            0            0     3938.786   -99572.864   -60.522582      42.8272      42.8272      42.8272            0            0            0   0.95382647 
  368000    78552.325    303.08582     241.8347    4519.0132   -18242.625   -13723.612   -13446.565    3030.4041    74364.197   -22180.848    3275.1053     663.1176            0            0    3938.2229   -99575.449   -60.522582      42.8272      42.8272      42.8272            0            0            0   0.95382647 
  370000    78552.325     297.4892   -326.02217    4435.5675   -18233.232   -13797.664   -14171.157    2984.7209    74421.754   -22172.765    3275.8169    663.71638            0            0    3939.5333    -99579.24   -60.522582      42.8272      42.8272      42.8272            0            0            0   0.95382647 
  372000    78552.325    296.62634    148.80515    4422.7022   -18252.132    -13829.43   -13658.958    3000.0984    74386.443   -22190.906    3275.2117    663.56228            0            0     3938.774   -99577.448   -60.522582      42.8272      42.8272      42.8272            0            0            0   0.95382647 
  374000    78552.325    297.94431   -52.979013    4442.3532   -18197.228   -13754.875   -13815.568    2886.4212    74556.145   -22136.095    3275.3351    663.53191            0            0     3938.867   -99578.662   -60.522582      42.8272      42.8272      42.8272            0            0            0   0.95382647 
  376000    78552.325    299.37207   -353.84747    4463.6412    -18205.93   -13742.289   -14147.658    2958.4696    74474.857   -22144.925    3275.7877    663.20734            0            0     3938.995   -99578.252   -60.522582      42.8272      42.8272      42.8272            0            0            0   0.95382647 
  378000    78552.325    296.64621   -207.71858    4422.9985   -18179.402   -13756.403   -13994.367    2911.4048    74550.609   -22118.186    3275.0906    663.69397            0            0    3938.7846     -99580.2   -60.522582      42.8272      42.8272      42.8272            0            0            0   0.95382647 
  380000    78552.325    298.25983    302.84112    4447.0576   -18217.379   -13770.322   -13423.385    2978.4917     74440.38   -22155.959    3275.4464    663.13359            0            0      3938.58   -99574.831   -60.522582      42.8272      42.8272      42.8272            0            0            0   0.95382647 
  382000    78552.325    294.12105    -561.1917    4385.3483    -18164.45   -13779.102   -14422.006    2853.6165    74621.588   -22102.978    3275.4305    663.09726            0            0    3938.5278   -99578.183   -60.522582      42.8272      42.8272      42.8272            0            0            0   0.95382647 
  384000    78552.325    298.37107   -295.31035    4448.7163   -18123.082   -13674.365   -14012.674    2931.4704    74580.889   -22061.428    3275.2606     663.0857            0            0    3938.3463   -99573.788   -60.522582      42.8272      42.8272      42.8272            0            0            0   0.95382647 
  386000    78552.325     296.5235   -102.72513    4421.1689   -18294.492   -13873.323   -13991.005    2929.6222    74412.435   -22234.284    3275.5655    664.22714            0            0    3939.7926   -99576.341   -60.522582      42.8272      42.8272      42.8272            0            0            0   0.95382647 
  388000    78552.325    297.72788    17.974239    4439.1262   -18157.933   -13718.807   -13698.215    3001.7194    74481.889   -22096.869    3275.2724    663.66375            0            0    3938.9362   -99580.478   -60.522582      42.8272      42.8272      42.8272            0            0            0   0.95382647 
  390000    78552.325    300.71101   -576.45986    4483.6048   -18133.675   -13650.071   -14310.466    2846.2154    74662.203   -22072.126    3275.4062    663.04443            0            0    3938.4506   -99580.544   -60.522582      42.8272      42.8272      42.8272            0            0            0   0.95382647 
  392000    78552.325    298.59684    53.768683    4452.0824   -18267.732    -13815.65   -13754.052    2929.9283    74438.747   -22206.655    3275.5878    663.33487            0            0    3938.9227    -99575.33   -60.522582      42.8272      42.8272      42.8272            0            0            0   0.95382647 
  394000    78552.325    294.66113    -334.3065    4393.4009   -18202.772   -13809.372   -14192.355    2903.3912    74527.483   -22140.963    3275.1006     663.0902            0            0    3938.1908   -99571.838   -60.522582      42.8272      42.8272      42.8272            0            0            0   0.95382647 
  396000    78552.325    297.37552   -337.60708    4433.8726   -18227.176   -13793.303   -14180.068    2977.7013    74433.165   -22166.384    3275.7246    663.48327            0            0    3939.2078    -99577.25   -60.522582      42.8272      42.8272      42.8272            0            0            0   0.95382647 
  398000    78552.325    298.07375     119.7053    4444.2832   -18152.349   -13708.066   -13570.931    2971.6665    74517.701   -22091.258    3275.2213    663.68769            0            0     3938.909   -99580.626   -60.522582      42.8272      42.8272      42.8272            0            0            0   0.95382647 
  400000    78552.325    295.06818   -80.497889    4399.4701   -18170.494   -13771.024   -13863.242    2882.3843    74582.251    -22108.91    3275.2524    663.16426            0            0    3938.4166   -99573.545   -60.522582      42.8272      42.8272      42.8272            0            0            0   0.95382647 
  402000    78552.325    297.99599   -490.39539    4443.1237    -18236.52   -13793.397   -14355.196    2884.9977    74512.993   -22176.287    3275.4786    664.28792            0            0    3939.7665   -99574.277   -60.522582      42.8272      42.8272      42.8272            0            0            0   0.95382647 
  404000    78552.325    299.52171    -496.7142    4465.8723   -18136.912   -13671.039   -14240.078    2825.3144    74676.615   -22076.046    3275.1456    663.98847            0            0    3939.1341   -99577.975   -60.522582      42.8272      42.8272      42.8272            0            0            0   0.95382647 
  406000    78552.325    301.02368   -50.363796    4488.2666   -18286.873   -13798.607   -13856.304    2903.2958    74447.919   -22225.617    3275.5513    663.19226            0            0    3938.7435   -99576.832   -60.522582      42.8272      42.8272      42.8272            0            0            0   0.95382647 
  408000    78552.325    302.84953   -343.39333    4515.4901   -18184.391   -13668.901   -14062.294    2899.0601     74553.63   -22122.733    3275.2696     663.0727            0            0    3938.3423   -99575.423   -60.522582      42.8272      42.8272      42.8272            0            0            0   0.95382647 
  410000    78552.325    299.80045   -664.71191    4470.0282   -18120.924   -13650.896   -14412.393    2809.5244    74709.529   -22059.377    3275.3217    663.13156            0            0    3938.4532    -99578.43   -60.522582      42.8272      42.8272      42.8272            0            0            0   0.95382647 
  412000    78552.325    300.71927    426.91056    4483.7279   -18236.156   -13752.428   -13263.357    3077.8198    74329.982   -22174.752    3275.4383    663.15754            0            0    3938.5958   -99582.554   -60.522582      42.8272      42.8272      42.8272            0            0            0   0.95382647 
  414000    78552.325    296.97547   -242.00724    4427.9077   -18209.602   -13781.694   -14058.939    2886.5695    74541.705   -22147.837    3275.0851    663.14936            0            0    3938.2345   -99576.112   -60.522582      42.8272      42.8272      42.8272            0            0            0   0.95382647 
  416000    78552.325    299.27727    -63.52409    4462.2277   -18103.876   -13641.649   -13714.422    3014.5415    74518.744   -22042.509    3275.5828    663.05005            0            0    3938.6328   -99575.794   -60.522582      42.8272      42.8272      42.8272            0            0            0   0.95382647 
  418000    78552.325    295.53926    -507.1198    4406.4938   -18124.228   -13717.734   -14298.693    2796.3572    74718.602    -22062.48    3275.1325    663.11914            0            0    3938.2517   -99577.439   -60.522582      42.8272      42.8272      42.8272            0            0            0   0.95382647 
  420000    78552.325    296.53225     -200.819    4421.2994   -18174.931   -13753.631   -13983.691    2845.2121    74618.553   -22113.272    3275.2165    663.12502            0            0    3938.3415   -99577.037   -60.522582      42.8272      42.8272      42.8272            0            0            0   0.95382647 
  422000    78552.325    299.45206   -560.32937    4464.8337   -18235.175   -13770.341   -14412.257     2889.136      74511.3   -22173.939    3275.5685    663.19627            0            0    3938.7648   -99574.375   -60.522582      42.8272      42.8272      42.8272            0            0            0   0.95382647 
  424000    78552.325    298.16326   -88.068281    4445.6177   -18073.243   -13627.626   -13728.517    2934.8602    74629.443   -22011.452    3275.1178    663.09058            0            0    3938.2084   -99575.755   -60.522582      42.8272      42.8272      42.8272            0            0            0   0.95382647 
  426000    78552.325    300.29512   -100.26714    4477.4038   -18172.651   -13695.247   -13810.114    2885.5043    74582.451   -22111.969    3275.3647    663.95366            0            0    3939.3184   -99579.925   -60.522582      42.8272      42.8272      42.8272            0            0            0   0.95382647 
  428000    78552.325    298.99465    -465.0082    4458.0138   -18260.955   -13802.942   -14335.657    2948.8661    74429.168   -22199.876    3275.6634    663.25693            0            0    3938.9204    -99577.91   -60.522582      42.8272      42.8272      42.8272            0            0            0   0.95382647 
  430000    78552.325    292.27065   -253.95166    4357.7588    -18203.22   -13845.461    -14136.39    2880.6349    74554.378   -22141.592    3275.1065    663.26502            0            0    3938.3716   -99576.605   -60.522582      42.8272      42.8272      42.8272            0            0            0   0.95382647 
  432000    78552.325    294.06051    121.16814    4384.4457   -18216.311   -13831.866   -13693.055     2972.575    74449.368   -22155.057    3275.5346    663.21072            0            0    3938.7453       -99577   -60.522582      42.8272      42.8272      42.8272            0            0            0   0.95382647 
  434000    78552.325    295.98819   -521.22202    4413.1874   -18188.329   -13775.142   -14372.256    2851.7277    74595.678   -22127.197    3275.2382    663.62992            0            0    3938.8681   -99574.603   -60.522582      42.8272      42.8272      42.8272            0            0            0   0.95382647 
  436000    78552.325     296.0242   -575.81694    4413.7244   -18231.856   -13818.132   -14477.791     2858.137    74551.209   -22170.293    3275.3383    663.09871            0            0     3938.437    -99579.64   -60.522582      42.8272      42.8272      42.8272            0            0            0   0.95382647 
  438000    78552.325    295.27589   -204.99369     4402.567   -18117.472   -13714.905   -13949.747    2788.2858    74734.353   -22056.456    3275.4729    663.51042            0            0    3938.9833   -99579.094   -60.522582      42.8272      42.8272      42.8272            0            0            0   0.95382647 
  440000    78552.325     298.1039   -249.25172    4444.7327   -18279.348   -13834.615   -14120.159    2942.0177    74421.412    -22217.67    3275.0946    663.22775            0            0    3938.3223   -99581.101   -60.522582      42.8272      42.8272      42.8272            0            0            0   0.95382647 
  442000    78552.325    297.46182   -344.43509    4435.1593   -18287.918   -13852.759   -14247.346    2946.3063    74404.439   -22226.709    3275.6487    663.14147            0            0    3938.7902   -99577.454   -60.522582      42.8272      42.8272      42.8272            0            0            0   0.95382647 
  444000    78552.325    296.16097   -298.30089    4415.7635   -18073.687   -13657.923   -13999.658    2841.5365    74722.109    -22011.95    3275.1288     663.1347            0            0    3938.2635   -99575.596   -60.522582      42.8272      42.8272      42.8272            0            0            0   0.95382647 
  446000    78552.325    296.38635    81.965516     4419.124   -18178.467   -13759.343   -13665.443    2914.3408    74545.863   -22117.006    3275.3487    663.18972            0            0    3938.5385    -99577.21   -60.522582      42.8272      42.8272      42.8272            0            0            0   0.95382647 
  448000    78552.325    300.70375   -586.56438    4483.4964   -18191.342   -13707.846   -14379.817    2861.9376    74585.773   -22130.649    3275.3495    663.95724            0            0    3939.3067    -99578.36   -60.522582      42.8272      42.8272      42.8272            0            0            0   0.95382647 
  450000    78552.325    299.65624    73.729614    4467.8781   -18232.281   -13764.402   -13679.937    3019.0289    74384.615   -22170.653    3275.0914    663.28117            0            0    3938.3725   -99574.297   -60.522582      42.8272      42.8272      42.8272            0            0            0   0.95382647 
  452000    78552.325     295.1892    349.94819    4401.2745   -18272.586   -13871.311   -13470.409      3020.14    74347.433   -22212.158    3275.4717    664.10031            0            0     3939.572   -99579.731   -60.522582      42.8272      42.8272      42.8272            0            0            0   0.95382647 
  454000    78552.325    295.68009   -235.73479    4408.5936    -18262.73   -13854.136   -14124.195    2975.0512    74402.502   -22201.083    3275.3168     663.0366            0            0    3938.3534   -99578.637   -60.522582      42.8272      42.8272      42.8272            0            0            0   0.95382647 
  456000    78552.325    297.25079   -634.74311    4432.0128   -18180.593    -13748.58   -14475.745    2862.7566    74592.324   -22119.132    3275.3462    663.19255            0            0    3938.5388   -99574.212   -60.522582      42.8272      42.8272      42.8272            0            0            0   0.95382647 
  458000    78552.325    297.19915    -106.8057    4431.2428   -18216.118   -13784.875   -13907.233       2930.9    74491.227    -22154.61     3275.369    663.12253            0            0    3938.4916   -99576.736   -60.522582      42.8272      42.8272      42.8272            0            0            0   0.95382647 
  460000    78552.325    294.08636   -287.90933    4384.8311   -18254.949   -13870.118   -14199.948    2886.2634    74495.827   -22193.348    3275.1849    663.21394            0            0    3938.3988   -99575.439   -60.522582      42.8272      42.8272      42.8272            0            0            0   0.95382647 
  462000    78552.325    297.81599   -567.18201      4440.44   -18106.038   -13665.598   -14315.365    2842.2858    74692.965    -22044.72     3275.584    663.09764            0            0    3938.6817    -99579.97   -60.522582      42.8272      42.8272      42.8272            0            0            0   0.95382647 
  464000    78552.325    296.13867   -392.03262     4415.431   -18280.078   -13864.647   -14313.761    2927.2424    74433.195   -22218.366    3275.0991    663.18876            0            0    3938.2878   -99578.803   -60.522582      42.8272      42.8272      42.8272            0            0            0   0.95382647 
  466000    78552.325    298.31825    93.222837    4447.9287   -18105.062   -13657.134   -13550.337    2891.9688    74638.647   -22043.873    3275.5684    663.24207            0            0    3938.8105   -99574.489   -60.522582      42.8272      42.8272      42.8272            0            0            0   0.95382647 
  468000    78552.325    294.01301   -412.85813    4383.7374   -18076.356   -13692.619   -14165.591    2834.6967    74719.345   -22014.585    3275.1428    663.08668            0            0    3938.2295   -99568.627   -60.522582      42.8272      42.8272      42.8272            0            0            0   0.95382647 
  470000    78552.325    296.93023   -953.81306    4427.2332    -18174.89   -13747.656    -14840.35    2738.9963    74725.864   -22113.456    3275.4248    663.14158            0            0    3938.5664   -99578.317   -60.522582      42.8272      42.8272      42.8272            0            0            0   0.95382647 
  472000    78552.325    295.34241   -145.47864    4403.5589   -18179.479    -13775.92   -13942.581    2924.6619    74530.394   -22118.188    3275.5085      663.201            0            0    3938.7095   -99573.245   -60.522582      42.8272      42.8272      42.8272            0            0            0   0.95382647 
  474000    78552.325    296.48518   -48.552677    4420.5976   -18217.859   -13797.261   -13852.884     2895.583    74527.028   -22156.049    3275.1025    663.08702            0            0    3938.1896   -99578.659   -60.522582      42.8272      42.8272      42.8272            0            0            0   0.95382647 
[...]
  886000    78552.325    300.24288    38.986731    4476.6249   -18222.964   -13746.339   -13701.676    2957.8247    74460.138   -22161.203    3275.1384    663.10111            0            0    3938.2395   -99579.166   -60.522582      42.8272      42.8272      42.8272            0            0            0   0.95382647 
  888000    78552.325    298.66531   -337.19865    4453.1034   -18130.107   -13677.003     -14063.3    2879.2524    74628.779   -22068.468    3275.2046    663.15627            0            0    3938.3609   -99576.499   -60.522582      42.8272      42.8272      42.8272            0            0            0   0.95382647 
  890000    78552.325    295.65846   -242.54143    4408.2711   -18223.031    -13814.76   -14092.617    2930.4322    74491.837   -22161.217    3275.0857    663.09981            0            0    3938.1855   -99583.487   -60.522582      42.8272      42.8272      42.8272            0            0            0   0.95382647 
  892000    78552.325    297.40075   -114.11979    4434.2486   -18251.241   -13816.992   -13947.728    2888.7406    74499.304   -22189.582    3275.2333    663.10832            0            0    3938.3416   -99577.627   -60.522582      42.8272      42.8272      42.8272            0            0            0   0.95382647 
  894000    78552.325     299.8124   -149.28217    4470.2064    -18271.94   -13801.733   -13972.752    3021.7645    74349.975   -22210.645    3275.2137     663.4917            0            0    3938.7053   -99582.384   -60.522582      42.8272      42.8272      42.8272            0            0            0   0.95382647 
  896000    78552.325    296.59202   -132.46203    4422.1905   -18049.682   -13627.492   -13779.241    2945.2843    74637.123   -21988.264    3275.2725     663.3092            0            0    3938.5817   -99570.671   -60.522582      42.8272      42.8272      42.8272            0            0            0   0.95382647 
  898000    78552.325    295.71457    53.952189    4409.1077   -18149.981   -13740.874   -13679.066    2890.3561    74605.188   -22088.452    3275.2882    663.18231            0            0    3938.4706   -99583.996   -60.522582      42.8272      42.8272      42.8272            0            0            0   0.95382647 
  900000    78552.325    300.14313    83.299251    4475.1376   -18208.687   -13733.549   -13638.121    2932.0255    74495.841   -22146.948    3275.1151    663.14587            0            0    3938.2609   -99574.815   -60.522582      42.8272      42.8272      42.8272            0            0            0   0.95382647 
  902000    78552.325     295.2849    -362.8618    4402.7013   -18192.129   -13789.427   -14205.124    2917.3519    74530.169   -22131.357    3275.4197    663.80821            0            0    3939.2279   -99578.878   -60.522582      42.8272      42.8272      42.8272            0            0            0   0.95382647 
  904000    78552.325    292.78856   -170.98892    4365.4809   -18085.146   -13719.665   -13915.551    2916.0794    74634.909    -22023.67    3275.0891    663.43491            0            0     3938.524   -99574.658   -60.522582      42.8272      42.8272      42.8272            0            0            0   0.95382647 
  906000    78552.325    295.72301   -158.17474    4409.2336   -18084.895   -13675.661   -13856.867    2829.9201    74720.267   -22023.465    3275.2622    663.30838            0            0    3938.5706   -99573.653   -60.522582      42.8272      42.8272      42.8272            0            0            0   0.95382647 
  908000    78552.325    298.41479   -227.19128     4449.368   -18156.825   -13707.457   -13967.729    2898.0556    74583.216   -22095.235    3275.2996    663.11083            0            0    3938.4104   -99576.507   -60.522582      42.8272      42.8272      42.8272            0            0            0   0.95382647 
  910000    78552.325    298.87421   -562.47987     4456.218   -18124.089   -13667.871   -14312.251    2798.3125    74716.953   -22062.358    3275.1733    663.09549            0            0    3938.2688   -99577.624   -60.522582      42.8272      42.8272      42.8272            0            0            0   0.95382647 
  912000    78552.325    303.67817    178.76799    4527.8451   -18080.554   -13552.709   -13347.911    2940.1146    74617.538   -22019.184    3275.3034    663.32721            0            0    3938.6306   -99576.837   -60.522582      42.8272      42.8272      42.8272            0            0            0   0.95382647 
  914000    78552.325    297.93491    -192.0795     4442.213   -18211.745   -13769.532   -13989.579    2932.5147    74488.573   -22150.455    3275.1041     663.6064            0            0    3938.7105   -99571.542   -60.522582      42.8272      42.8272      42.8272            0            0            0   0.95382647 
  916000    78552.325    297.56499    -93.12245    4436.6975   -18123.725   -13687.028   -13793.709    3008.1793    74510.655    -22062.23    3275.3996    663.10562            0            0    3938.5053   -99581.065   -60.522582      42.8272      42.8272      42.8272            0            0            0   0.95382647 
  918000    78552.325    302.15321    -272.2873     4505.108   -18279.779   -13774.671   -14086.605    2919.4409    74434.415    -22218.05    3275.1609    663.10939            0            0    3938.2703   -99571.906   -60.522582      42.8272      42.8272      42.8272            0            0            0   0.95382647 
  920000    78552.325    300.72072   -103.87803    4483.7495   -18197.318   -13713.568   -13832.572    2914.9095    74526.186   -22135.676    3275.1714    663.18654            0            0    3938.3579   -99576.771   -60.522582      42.8272      42.8272      42.8272            0            0            0   0.95382647 
  922000    78552.325    300.44353   -353.42112    4479.6166   -18196.389   -13716.773   -14121.654     2923.284    74510.462   -22135.416    3275.3954    663.63096            0            0    3939.0263   -99569.161   -60.522582      42.8272      42.8272      42.8272            0            0            0   0.95382647 
  924000    78552.325    299.32642    -115.0702    4462.9604    -18190.26   -13727.299   -13859.124    2971.4094    74480.475   -22128.649    3275.0856    663.30315            0            0    3938.3887   -99580.533   -60.522582      42.8272      42.8272      42.8272            0            0            0   0.95382647 
  926000    78552.325    294.52459   -122.91338    4391.3651    -18197.65   -13806.285   -13947.095    2900.6275    74539.353   -22136.606    3275.3177    663.63878            0            0    3938.9564   -99576.587   -60.522582      42.8272      42.8272      42.8272            0            0            0   0.95382647 
  928000    78552.325    296.63715   -171.27714    4422.8634   -18195.373    -13772.51   -13968.726    2974.9913    74466.278   -22134.108    3275.2865    663.44857            0            0     3938.735   -99575.377   -60.522582      42.8272      42.8272      42.8272            0            0            0   0.95382647 
  930000    78552.325    301.59219     -560.969    4496.7431   -18182.818   -13686.075   -14328.724    2816.7522    74637.632   -22121.072    3275.1938    663.06054            0            0    3938.2543   -99575.456   -60.522582      42.8272      42.8272      42.8272            0            0            0   0.95382647 
  932000    78552.325    298.02535   -119.17602    4443.5615   -18282.987   -13839.426   -13975.955    2890.3628    74462.386   -22221.584    3275.2297    663.36672            0            0    3938.5964   -99574.332   -60.522582      42.8272      42.8272      42.8272            0            0            0   0.95382647 
  934000    78552.325    294.85822   -245.55662    4396.3395     -18295.6    -13899.26   -14180.571    2921.0725     74426.04    -22234.03    3275.0934    663.33743            0            0    3938.4308   -99581.143   -60.522582      42.8272      42.8272      42.8272            0            0            0   0.95382647 
  936000    78552.325    299.66174   -77.978279    4467.9601   -18125.232   -13657.272   -13746.604    3042.2081    74471.269   -22063.723    3275.3356    663.15589            0            0    3938.4915   -99577.201   -60.522582      42.8272      42.8272      42.8272            0            0            0   0.95382647 
  938000    78552.325    300.17624   -102.93578    4475.6313   -18260.901    -13785.27   -13903.194    2917.1787    74463.672   -22199.563    3275.2828     663.3785            0            0    3938.6613   -99580.413   -60.522582      42.8272      42.8272      42.8272            0            0            0   0.95382647 
  940000    78552.325    300.62463   -118.86688    4482.3168   -18124.243   -13641.927   -13778.101    2947.1131    74563.214   -22064.406    3275.1374    665.02547            0            0    3940.1629   -99574.733   -60.522582      42.8272      42.8272      42.8272            0            0            0   0.95382647 
  942000    78552.325     293.7166   -442.90501     4379.318   -18133.541   -13754.223   -14261.617    2847.4214    74655.625   -22071.983    3275.3689    663.07283            0            0    3938.4417   -99575.029   -60.522582      42.8272      42.8272      42.8272            0            0            0   0.95382647 
  944000    78552.325    294.14604   -309.44133    4385.7209   -18151.179   -13765.458   -14119.955    2826.2377    74664.753   -22089.487    3275.1763    663.13174            0            0     3938.308   -99580.478   -60.522582      42.8272      42.8272      42.8272            0            0            0   0.95382647 
  946000    78552.325    294.74422    360.16571    4394.6399   -18193.559   -13798.919   -13386.311    2991.7601    74453.724   -22131.959    3275.2055    663.19455            0            0       3938.4   -99577.443   -60.522582      42.8272      42.8272      42.8272            0            0            0   0.95382647 
  948000    78552.325     300.5431   -923.90297    4481.1012   -18187.373   -13706.272     -14764.7     2674.481    74777.271   -22127.061    3275.3815    664.30684            0            0    3939.6883   -99578.814   -60.522582      42.8272      42.8272      42.8272            0            0            0   0.95382647 
  950000    78552.325    296.70363    -108.0278    4423.8547   -18158.219   -13734.364   -13858.121    2957.5569    74520.412    -22096.48    3275.1074    663.15363            0            0     3938.261   -99574.448   -60.522582      42.8272      42.8272      42.8272            0            0            0   0.95382647 
  952000    78552.325    297.50597     129.8982    4435.8175   -18142.275   -13706.458   -13557.646    2920.1261    74577.424   -22080.891    3275.2639    663.35152            0            0    3938.6155   -99578.441   -60.522582      42.8272      42.8272      42.8272            0            0            0   0.95382647 
  954000    78552.325    299.30873   -445.82792    4462.6967   -18130.765   -13668.068   -14178.811    2922.2636    74585.487   -22069.349    3275.2864    663.29786            0            0    3938.5843     -99577.1   -60.522582      42.8272      42.8272      42.8272            0            0            0   0.95382647 
  956000    78552.325    298.27743   -264.69937      4447.32   -18188.735   -13741.415   -14044.656    2956.2971    74496.727   -22127.017    3275.2236    663.05777            0            0    3938.2814    -99580.04   -60.522582      42.8272      42.8272      42.8272            0            0            0   0.95382647 
  958000    78552.325    294.26007    205.64234    4387.4212   -18245.315   -13857.894   -13622.309    3004.8887    74392.073   -22184.213    3275.3056    663.59244            0            0     3938.898   -99581.175   -60.522582      42.8272      42.8272      42.8272            0            0            0   0.95382647 
  960000    78552.325    297.40421   -155.85304    4434.3003   -18144.148   -13709.848   -13888.394    2879.1671    74616.795    -22082.36    3275.0854    663.12683            0            0    3938.2123   -99578.323   -60.522582      42.8272      42.8272      42.8272            0            0            0   0.95382647 
  962000    78552.325    298.91334   -525.33421    4456.8015   -18186.164   -13729.362   -14331.188    2870.4786    74576.726   -22125.471    3275.3848    663.92215            0            0     3939.307   -99572.675   -60.522582      42.8272      42.8272      42.8272            0            0            0   0.95382647 
  964000    78552.325    300.10948     282.3636    4474.6359   -18290.413   -13815.777     -13492.3    3047.1944    74302.395   -22228.872    3275.3139    663.14532            0            0    3938.4592   -99578.462   -60.522582      42.8272      42.8272      42.8272            0            0            0   0.95382647 
  966000    78552.325    296.79779    310.57892    4425.2586   -18198.564   -13773.306   -13417.505    3060.9229    74376.678   -22136.849    3275.0919    663.19294            0            0    3938.2848    -99574.45   -60.522582      42.8272      42.8272      42.8272            0            0            0   0.95382647 
  968000    78552.325    298.68693   -611.08552    4453.4257   -18145.436    -13692.01   -14392.073    2820.1882    74674.565   -22084.102    3275.3503    663.31636            0            0    3938.6667   -99578.856   -60.522582      42.8272      42.8272      42.8272            0            0            0   0.95382647 
  970000    78552.325    295.98712   -172.14447    4413.1714   -18378.514   -13965.343   -14162.552    3034.3718    74226.568   -22316.826    3275.0961    663.21595            0            0    3938.3121   -99577.766   -60.522582      42.8272      42.8272      42.8272            0            0            0   0.95382647 
  972000    78552.325    296.84952   -384.09138    4426.0299   -18192.113   -13766.083     -14206.1    2787.0569    74661.407   -22130.537    3275.2171    663.20729            0            0    3938.4244   -99579.001   -60.522582      42.8272      42.8272      42.8272            0            0            0   0.95382647 
  974000    78552.325    300.16856    20.322476    4475.5168   -18246.274   -13770.757   -13747.476    3047.0091    74347.023   -22184.593    3275.2639    663.05481            0            0    3938.3187   -99578.625   -60.522582      42.8272      42.8272      42.8272            0            0            0   0.95382647 
  976000    78552.325    298.95541   -517.04638    4457.4288   -18200.173   -13742.744   -14335.075    2826.0245    74605.765   -22138.522    3275.1575    663.19147            0            0     3938.349   -99570.311   -60.522582      42.8272      42.8272      42.8272            0            0            0   0.95382647 
  978000    78552.325    304.03007    49.537662     4533.092   -18284.741   -13751.649   -13694.898    2950.6756    74403.114   -22223.202    3275.3293    663.13188            0            0    3938.4612   -99576.992   -60.522582      42.8272      42.8272      42.8272            0            0            0   0.95382647 
  980000    78552.325    298.42891   -394.79936    4449.5785   -18116.819    -13667.24   -14119.525    2858.7068    74664.815   -22055.166    3275.1492    663.19746            0            0    3938.3466   -99578.687   -60.522582      42.8272      42.8272      42.8272            0            0            0   0.95382647 
  982000    78552.325    296.98604   -687.14991    4428.0654   -18114.739   -13686.674   -14473.876    2764.0049    74757.762    -22054.05    3275.2952    664.01604            0            0    3939.3112   -99575.817   -60.522582      42.8272      42.8272      42.8272            0            0            0   0.95382647 
  984000    78552.325    295.27708   -139.25871    4402.5847   -18073.036   -13670.451   -13829.987    2820.6245     74736.86   -22011.478    3275.2893    663.15298            0            0    3938.4423   -99568.963   -60.522582      42.8272      42.8272      42.8272            0            0            0   0.95382647 
  986000    78552.325    301.51586   -359.93828     4495.605   -18196.215    -13700.61   -14112.957    2888.9189     74552.95   -22134.822    3275.0885    663.51887            0            0    3938.6074   -99576.691   -60.522582      42.8272      42.8272      42.8272            0            0            0   0.95382647 
  988000    78552.325    301.52435   -511.26925    4495.7316   -18232.193   -13736.461   -14322.174    2899.5113    74505.491   -22170.612    3275.3791    663.03953            0            0    3938.4187   -99575.614   -60.522582      42.8272      42.8272      42.8272            0            0            0   0.95382647 
  990000    78552.325    299.39768   -124.31672    4464.0229   -18081.587   -13617.564   -13759.982    2913.8443    74644.105   -22020.503    3275.1124    663.80354            0            0    3938.9159   -99578.452   -60.522582      42.8272      42.8272      42.8272            0            0            0   0.95382647 
  992000    78552.325    296.64967      -309.83    4423.0501   -18125.546   -13702.496   -14057.438    2808.6701    74702.771   -22064.577    3275.2364    663.79515            0            0    3939.0316   -99576.018   -60.522582      42.8272      42.8272      42.8272            0            0            0   0.95382647 
  994000    78552.325    291.35886     112.2461    4344.1641   -18160.557   -13816.393   -13687.803    3033.2932    74442.413   -22099.046      3275.24    663.24879            0            0    3938.4888   -99574.752   -60.522582      42.8272      42.8272      42.8272            0            0            0   0.95382647 
  996000    78552.325    298.66361   -133.71533    4453.0779   -18172.426   -13719.348   -13872.533    2962.4379    74499.398   -22110.601     3275.115    663.05939            0            0    3938.1744   -99572.437   -60.522582      42.8272      42.8272      42.8272            0            0            0   0.95382647 
  998000    78552.325    301.41508   -234.46422    4494.1023   -18171.485   -13677.383   -13945.986    2812.1939    74658.161   -22110.619    3275.3264    663.80735            0            0    3939.1338   -99580.974   -60.522582      42.8272      42.8272      42.8272            0            0            0   0.95382647 
 1000000    78552.325     302.5314   -281.99922    4510.7468   -18262.738   -13751.991   -14075.051    2916.2291    74460.352   -22200.958     3275.175    663.04506            0            0    3938.2201   -99577.539   -60.522582      42.8272      42.8272      42.8272            0            0            0   0.95382647 
Loop time of 44969 on 16 procs for 1000000 steps with 7504 atoms

Pair  time (%) = 13725 (30.5211)
Bond  time (%) = 47.9372 (0.106601)
Kspce time (%) = 19114.8 (42.5066)
Neigh time (%) = 1029.81 (2.29005)
Comm  time (%) = 6072.99 (13.5048)
Outpt time (%) = 10.4043 (0.0231367)
Other time (%) = 4967.99 (11.0476)

Nlocal:    469 ave 482 max 454 min
Histogram: 1 2 1 1 3 0 2 3 2 1
Nghost:    8594.75 ave 8664 max 8538 min
Histogram: 3 3 0 2 0 2 2 1 1 2
Neighs:    257350 ave 278735 max 235602 min
Histogram: 2 3 2 1 0 0 2 0 1 5

Total # of neighbors = 4117601
Ave neighs/atom = 548.721
Ave special neighs/atom = 1.99973
Neighbor list builds = 51815
Dangerous builds = 0


write_restart   restart.${NAME}
write_restart   restart.mol
Ewald initialization ...
  G vector (1/distance) = 0.210766
  estimated absolute RMS force accuracy = 0.034194
  estimated relative force accuracy = 0.000102974
  KSpace vectors: actual max1d max3d = 1054 8 2456
                  kxmax kymax kzmax  = 8 8 8
write_data      restart.data
Ewald initialization ...
  G vector (1/distance) = 0.210766
  estimated absolute RMS force accuracy = 0.034194
  estimated relative force accuracy = 0.000102974
  KSpace vectors: actual max1d max3d = 1054 8 2456
                  kxmax kymax kzmax  = 8 8 8
