LAMMPS data file via write_data, version 13 May 2014, timestep = 2000000

# 2500 H2O molecules
# 1 SCN molecules
# 1 Na molecules

7504 atoms
6 atom types
5002 bonds
3 bond types
2501 angles
2 angle types

0 42.8272 xlo xhi
0 42.8272 ylo yhi
0 42.8272 zlo zhi

Masses

1 16
2 1.008
3 12.01
4 32.06
5 14.01
6 22.99

Pair Coeffs # lj/cut/coul/long

1 0.15525 3.166
2 0 0
3 0.20986 3.4
4 0.249833 3.564
5 0.169886 3.25
6 0.000500441 4.07

Bond Coeffs # harmonic

1 369.353 1
2 371.552 1.678
3 1013.82 1.183

Angle Coeffs # harmonic

1 41.902 109.47
2 81.7347 180

Atoms # full

5088 1696 2 4.0999999999999998e-01 -1.7912405866240647e+01 -1.4966136464501179e+01 -1.7176390130006968e+01 0 0 0
6774 2258 2 4.0999999999999998e-01 -1.6800018702137059e+01 -1.7821735558872778e+01 -1.7826586662570097e+01 0 0 0
6772 2258 1 -8.1999999999999995e-01 -1.7280568023525248e+01 -1.8487441606966218e+01 -1.7324594130612091e+01 0 0 0
6773 2258 2 4.0999999999999998e-01 -1.7928335244371798e+01 -1.7995246882536293e+01 -1.6810678115410614e+01 0 0 0
5179 1727 1 -8.1999999999999995e-01 -2.0731673801547881e+01 -2.0639968631632865e+01 -1.2424273969809674e+01 0 0 0
3605 1202 2 4.0999999999999998e-01 -1.9222545555056495e+01 -1.8016735217313350e+01 -2.0879686726772555e+01 0 0 0
6727 2243 1 -8.1999999999999995e-01 -2.1082106527279485e+01 -1.6952188992681222e+01 -2.0957388606729541e+01 0 0 0
3606 1202 2 4.0999999999999998e-01 -1.7783479999982042e+01 -1.7571970592841684e+01 -2.1135319827032458e+01 0 0 0
5014 1672 1 -8.1999999999999995e-01 -1.7265210573423470e+01 -2.0312284036423367e+01 -1.3445044570090724e+01 0 0 0
5016 1672 2 4.0999999999999998e-01 -1.6813608016658407e+01 -2.0061428086791246e+01 -1.4257710656964823e+01 0 0 0
4505 1502 2 4.0999999999999998e-01 -1.5916138032606359e+01 -1.6096099230707743e+01 -1.6141849597664070e+01 0 0 0
3947 1316 2 4.0999999999999998e-01 -1.9714146421277800e+01 -1.5192743426928475e+01 -1.8829126587782159e+01 0 0 0
3946 1316 1 -8.1999999999999995e-01 -1.9081981174482298e+01 -1.5680215144167100e+01 -1.8291930059302111e+01 0 0 0
5015 1672 2 4.0999999999999998e-01 -1.7536457965480444e+01 -1.9481881288392945e+01 -1.3043379590302255e+01 0 0 0
3984 1328 2 4.0999999999999998e-01 -1.5486554097204738e+01 -2.0844097243794511e+01 -1.0881121339254564e+01 0 0 0
3982 1328 1 -8.1999999999999995e-01 -1.5169292107306966e+01 -2.1231863159532114e+01 -1.1703205976428452e+01 0 0 0
4504 1502 1 -8.1999999999999995e-01 -1.5303212898201080e+01 -1.6834717007271156e+01 -1.6061935151989111e+01 0 0 0
3960 1320 2 4.0999999999999998e-01 -1.7669928525894903e+01 -1.7705673909613552e+01 -1.1704952426082041e+01 0 0 0
3958 1320 1 -8.1999999999999995e-01 -1.7876066989183531e+01 -1.7985998927481987e+01 -1.2601925945379197e+01 0 0 0
3983 1328 2 4.0999999999999998e-01 -1.5819958970524823e+01 -2.0978390240759147e+01 -1.2366199832295687e+01 0 0 0
5086 1696 1 -8.1999999999999995e-01 -1.7261344471356264e+01 -1.4792539659749687e+01 -1.6490032451235120e+01 0 0 0
3959 1320 2 4.0999999999999998e-01 -1.8561434261440031e+01 -1.7380919747227654e+01 -1.2901951899722562e+01 0 0 0
7144 2382 1 -8.1999999999999995e-01 -1.5816619126774558e+01 -1.7205262058797363e+01 -1.9532093200367882e+01 0 0 0
3948 1316 2 4.0999999999999998e-01 -1.9307433271354636e+01 -1.6606935189918623e+01 -1.8419530986782149e+01 0 0 0
7145 2382 2 4.0999999999999998e-01 -1.5284129637618840e+01 -1.6489187523799810e+01 -1.9891152893667680e+01 0 0 0
4506 1502 2 4.0999999999999998e-01 -1.5838529790835238e+01 -1.7570157256113852e+01 -1.5746911050834449e+01 0 0 0
2847 949 2 4.0999999999999998e-01 -2.1454073949782746e+01 -1.8363637325858551e+01 -1.7045175021858487e+01 0 0 0
1227 409 2 4.0999999999999998e-01 -1.8887439611192256e+01 -2.0624940893211946e+01 -2.0898019429619190e+01 0 0 0
7366 2456 1 -8.1999999999999995e-01 -2.1370589985113266e+01 -1.9635404953610308e+01 -1.5587973257090272e+01 0 0 0
5180 1727 2 4.0999999999999998e-01 -2.1419946168844678e+01 -1.9966442126277059e+01 -1.2418711221026266e+01 0 0 0
2361 787 2 4.0999999999999998e-01 -1.9464143994330964e+01 -1.5938339278131107e+01 -1.3874802464262508e+01 0 0 0
2411 804 2 4.0999999999999998e-01 -2.0751711176105509e+01 -1.4543619734081251e+01 -2.0973132153045526e+01 0 0 0
2360 787 2 4.0999999999999998e-01 -1.8906613675712762e+01 -1.4809465411261952e+01 -1.3009137816575370e+01 0 0 0
4150 1384 1 -8.1999999999999995e-01 -1.5884551504360804e+01 -2.0245444604210395e+01 -1.5851872608055558e+01 0 0 0
2359 787 1 -8.1999999999999995e-01 -1.9360844542551881e+01 -1.5657218996090275e+01 -1.2960056969251418e+01 0 0 0
1226 409 2 4.0999999999999998e-01 -1.9159520821661602e+01 -2.1096164622198028e+01 -1.9471658538632337e+01 0 0 0
5181 1727 2 4.0999999999999998e-01 -2.0419311025012206e+01 -2.0670169549072146e+01 -1.3333942640679888e+01 0 0 0
1225 409 1 -8.1999999999999995e-01 -1.9553644835642082e+01 -2.1046892180699206e+01 -2.0347459388535167e+01 0 0 0
4151 1384 2 4.0999999999999998e-01 -1.6052992204706673e+01 -1.9669272450055299e+01 -1.6604478150329406e+01 0 0 0
10 4 1 -8.1999999999999995e-01 -1.8162848339961847e+01 -2.0926942242027650e+01 -1.8052407272193516e+01 0 0 0
4152 1384 2 4.0999999999999998e-01 -1.6021892405686700e+01 -2.1137712919759959e+01 -1.6185014350573155e+01 0 0 0
11 4 2 4.0999999999999998e-01 -1.7803076715918131e+01 -2.0071421314448362e+01 -1.7797322914118844e+01 0 0 0
151 51 1 -8.1999999999999995e-01 -1.9406625753097511e+01 -1.7385862435701096e+01 -1.5737715683138793e+01 0 0 0
7146 2382 2 4.0999999999999998e-01 -1.5417103282039452e+01 -1.8010578798387641e+01 -1.9873601148698793e+01 0 0 0
3604 1202 1 -8.1999999999999995e-01 -1.8373487419147068e+01 -1.8329016705090172e+01 -2.1207681003272807e+01 0 0 0
1560 520 2 4.0999999999999998e-01 -1.9803761788129350e+01 -2.0258686604755145e+01 -1.0939629366939023e+01 0 0 0
152 51 2 4.0999999999999998e-01 -1.9887865873081726e+01 -1.6770472589604452e+01 -1.6298515045640013e+01 0 0 0
153 51 2 4.0999999999999998e-01 -1.9930284966003590e+01 -1.8193727390358660e+01 -1.5746545992039319e+01 0 0 0
6515 2172 2 4.0999999999999998e-01 -2.0945819933852956e+01 -1.5199280656064278e+01 -1.1597007195286334e+01 1 0 0
2845 949 1 -8.1999999999999995e-01 -2.1409848016579659e+01 -1.7774326951153093e+01 -1.7804075278165065e+01 0 0 0
5105 1702 2 4.0999999999999998e-01 -1.3134689132837103e+01 -2.0981505147897941e+01 -1.2966105527023011e+01 0 0 0
5106 1702 2 4.0999999999999998e-01 -1.3732872417339539e+01 -2.0566517169009050e+01 -1.4308615932707344e+01 0 0 0
5104 1702 1 -8.1999999999999995e-01 -1.2956663511372161e+01 -2.0975120923776018e+01 -1.3911373626713008e+01 0 0 0
3461 1154 2 4.0999999999999998e-01 -8.9121747723858320e+00 -1.8712477473826748e+01 -2.1309998366583269e+01 0 0 0
6539 2180 2 4.0999999999999998e-01 -1.2640296247108394e+01 -1.9712172465120624e+01 -1.9668945380027985e+01 0 0 0
4868 1623 2 4.0999999999999998e-01 -9.2118631779833802e+00 -1.9669627082894074e+01 -1.6125368883264908e+01 0 0 0
4426 1476 1 -8.1999999999999995e-01 -7.1875059386221469e+00 -1.8390362234932994e+01 -1.1287438139253156e+01 0 0 0
7476 2492 2 4.0999999999999998e-01 -9.2471597245705706e+00 -1.6018036559568831e+01 -1.9562668312675502e+01 0 0 0
3297 1099 2 4.0999999999999998e-01 -1.2856513355870767e+01 -1.5957282890294442e+01 -1.8228044128368964e+01 0 0 0
3296 1099 2 4.0999999999999998e-01 -1.3682590028057765e+01 -1.6844704046587569e+01 -1.7298961512102665e+01 0 0 0
3295 1099 1 -8.1999999999999995e-01 -1.2812195186122365e+01 -1.6761241671728317e+01 -1.7701136293441973e+01 0 0 0
3826 1276 1 -8.1999999999999995e-01 -1.0950544680447702e+01 -1.6571713344655397e+01 -1.3277016021641405e+01 0 0 0
3828 1276 2 4.0999999999999998e-01 -1.1495414126283805e+01 -1.6448345156243164e+01 -1.4059896106100314e+01 0 0 0
3827 1276 2 4.0999999999999998e-01 -1.0525258061146634e+01 -1.5721005240460350e+01 -1.3130719394627992e+01 0 0 0
108 36 2 4.0999999999999998e-01 -1.0936721087211135e+01 -1.6636134161740291e+01 -1.7452868842229758e+01 0 0 0
1378 460 1 -8.1999999999999995e-01 -9.4493337998382074e+00 -1.9432252282277513e+01 -1.7948561640461460e+01 0 0 0
1380 460 2 4.0999999999999998e-01 -9.2675070660294363e+00 -1.9209048025834793e+01 -1.8866358218067319e+01 0 0 0
1379 460 2 4.0999999999999998e-01 -9.9589015413232485e+00 -2.0247337646803565e+01 -1.7984383806698087e+01 0 0 0
106 36 1 -8.1999999999999995e-01 -9.9771959173225824e+00 -1.6704120359344625e+01 -1.7417640451295995e+01 0 0 0
107 36 2 4.0999999999999998e-01 -9.7845350995984788e+00 -1.7627932637824969e+01 -1.7605622816996753e+01 0 0 0
6538 2180 1 -8.1999999999999995e-01 -1.3002115710154170e+01 -2.0007748092784539e+01 -1.8828424491765261e+01 0 0 0
4869 1623 2 4.0999999999999998e-01 -8.6857873771786860e+00 -1.9374039383681634e+01 -1.4722345495239498e+01 0 0 0
5092 1698 1 -8.1999999999999995e-01 -8.3021437801040001e+00 -1.7853925271783140e+01 -1.3735315047597940e+01 0 0 0
2860 954 1 -8.1999999999999995e-01 -7.9569828560316083e+00 -1.5958264423329446e+01 -1.5693234915703318e+01 0 0 0
2862 954 2 4.0999999999999998e-01 -8.8327110680195275e+00 -1.6008623498050653e+01 -1.6087188842583341e+01 0 0 0
5094 1698 2 4.0999999999999998e-01 -7.9266965398985523e+00 -1.8038557853528275e+01 -1.2868817000696458e+01 0 0 0
6070 2024 1 -8.1999999999999995e-01 -1.4261179128048205e+01 -1.5345184255531855e+01 -2.0830521892722054e+01 0 0 0
6071 2024 2 4.0999999999999998e-01 -1.3750581517791183e+01 -1.4547281791672820e+01 -2.0656851246789046e+01 0 0 0
6540 2180 2 4.0999999999999998e-01 -1.3207388655295611e+01 -1.9199726101746922e+01 -1.8346656685992013e+01 0 0 0
5093 1698 2 4.0999999999999998e-01 -9.1356286035123215e+00 -1.7407758162059991e+01 -1.3555933755318396e+01 0 0 0
3462 1154 2 4.0999999999999998e-01 -8.0428456557521084e+00 -1.8098181988976435e+01 -2.0214939284682565e+01 0 0 0
6953 2318 2 4.0999999999999998e-01 -7.2868819097777493e+00 -1.9948200947231548e+01 -1.7705055986996744e+01 0 0 0
2861 954 2 4.0999999999999998e-01 -7.8225294828012579e+00 -1.6812313021822266e+01 -1.5270635843512995e+01 0 0 0
3780 1260 2 4.0999999999999998e-01 -1.3908270436012257e+01 -1.5536962610854747e+01 -1.4971118222434258e+01 0 0 0
3778 1260 1 -8.1999999999999995e-01 -1.3351136542252506e+01 -1.4875930573985382e+01 -1.4548961682509587e+01 0 0 0
7475 2492 2 4.0999999999999998e-01 -8.4055491213328324e+00 -1.5266234749652842e+01 -2.0592002618436222e+01 0 0 0
7474 2492 1 -8.1999999999999995e-01 -9.3133958907459231e+00 -1.5489866874159045e+01 -2.0364225071965965e+01 0 0 0
1374 458 2 4.0999999999999998e-01 -8.1075676859108459e+00 -1.4414998178245771e+01 -1.1254354524904899e+01 0 0 0
7213 2405 1 -8.1999999999999995e-01 -1.3801405422217799e+01 -1.5319948110514122e+01 -1.1453030393770112e+01 0 0 0
623 208 2 4.0999999999999998e-01 -8.3618668910400249e+00 -2.0606151256394167e+01 -2.0908460689892433e+01 0 0 0
1837 613 1 -8.1999999999999995e-01 -1.1527210914412164e+01 -1.4457334385293889e+01 -1.8905177392932011e+01 0 0 0
622 208 1 -8.1999999999999995e-01 -8.5192889115639741e+00 -2.1412163465134853e+01 -2.1410782075594160e+01 0 0 0
1838 613 2 4.0999999999999998e-01 -1.1066721625276218e+01 -1.4745678964010640e+01 -1.9699328325827647e+01 0 0 0
7215 2405 2 4.0999999999999998e-01 -1.3722793618712508e+01 -1.5156140299372137e+01 -1.2397309918728057e+01 0 0 0
7214 2405 2 4.0999999999999998e-01 -1.2954271479920537e+01 -1.5054323415157409e+01 -1.1082069091133043e+01 0 0 0
3460 1154 1 -8.1999999999999995e-01 -8.5622424406256510e+00 -1.8879440938616710e+01 -2.0429969841582768e+01 0 0 0
4867 1623 1 -8.1999999999999995e-01 -8.8885202577149762e+00 -2.0095316798073462e+01 -1.5325183707229753e+01 0 0 0
837 279 2 4.0999999999999998e-01 -1.1259331023965565e+01 -1.6557684356163207e+01 -1.1108974076984067e+01 0 0 0
4367 1456 2 4.0999999999999998e-01 -5.8329501131449746e-01 -1.8356556018185696e+01 -2.0368247445867503e+01 0 0 0
697 233 1 -8.1999999999999995e-01 -9.6915283631533455e-01 -1.9773057240515165e+01 -1.1970205950487790e+01 0 0 0
7012 2338 1 -8.1999999999999995e-01 -1.3838246911728405e+00 -2.0487832295106266e+01 -2.0434588844966353e+01 0 0 0
4457 1486 2 4.0999999999999998e-01 -5.9651775765780002e+00 -1.6404986791296501e+01 -1.8516104731834965e+01 0 0 0
4458 1486 2 4.0999999999999998e-01 -6.4425814445148042e+00 -1.7458348047728389e+01 -1.9513569551356184e+01 0 0 0
4456 1486 1 -8.1999999999999995e-01 -6.6749003155020574e+00 -1.6605085541152480e+01 -1.9134289017525568e+01 0 0 0
5738 1913 2 4.0999999999999998e-01 -4.3975132290333860e+00 -1.5602245742927504e+01 -1.2125672302623625e+01 0 0 0
1473 491 2 4.0999999999999998e-01 -6.3553874055705784e+00 -1.5543847803748509e+01 -1.5283406852007642e+01 0 0 0
3858 1286 2 4.0999999999999998e-01 -4.1853457279951840e+00 -1.8618240576855108e+01 -2.1017875069595348e+01 0 0 0
3857 1286 2 4.0999999999999998e-01 -4.3979477275763408e+00 -1.9336484465002229e+01 -1.9686459049709210e+01 0 0 0
3856 1286 1 -8.1999999999999995e-01 -4.8631164846342259e+00 -1.8853221882573212e+01 -2.0377524211302937e+01 0 0 0
5151 1717 2 4.0999999999999998e-01 -2.2329740309670747e+00 -2.1302980237791218e+01 -1.7209501404390576e+01 0 0 0
5116 1706 1 -8.1999999999999995e-01 -4.4559280761872380e+00 -1.4765494625176959e+01 -2.0799017026538806e+01 0 0 0
1471 491 1 -8.1999999999999995e-01 -5.4461357121654572e+00 -1.5426157497484613e+01 -1.4989144910303100e+01 0 0 0
6923 2308 2 4.0999999999999998e-01 -9.6477359105130844e-01 -1.6556974718706687e+01 -1.2942341111278386e+01 0 0 0
7469 2490 2 4.0999999999999998e-01 -4.5440797205931567e+00 -1.8043442178279523e+01 -1.7646077405586901e+01 0 0 0
5739 1913 2 4.0999999999999998e-01 -4.2883309905441394e+00 -1.7103394873764440e+01 -1.1863622594942749e+01 0 0 0
171 57 2 4.0999999999999998e-01 -3.4468170507298233e+00 -1.6219205119661922e+01 -1.7466246208426639e+01 0 0 0
170 57 2 4.0999999999999998e-01 -4.6503136942933665e+00 -1.5550300384698346e+01 -1.6805954064456657e+01 0 0 0
6954 2318 2 4.0999999999999998e-01 -6.8583083425922968e+00 -2.0679605117147901e+01 -1.6433938693073614e+01 0 0 0
6952 2318 1 -8.1999999999999995e-01 -6.5108639568066433e+00 -2.0245290289471036e+01 -1.7219776944605446e+01 0 0 0
169 57 1 -8.1999999999999995e-01 -4.3422312702099042e+00 -1.5913698100157372e+01 -1.7641190529631036e+01 0 0 0
3727 1243 1 -8.1999999999999995e-01 -5.7271140288678790e+00 -2.0758971419024785e+01 -1.1843994320231397e+01 0 0 0
3729 1243 2 4.0999999999999998e-01 -5.4205154864190455e+00 -2.0499090020797649e+01 -1.2717989548539840e+01 0 0 0
5118 1706 2 4.0999999999999998e-01 -4.5282853759499062e+00 -1.5604195444668903e+01 -2.0330714635222201e+01 0 0 0
7468 2490 1 -8.1999999999999995e-01 -4.1850855406813672e+00 -1.8926545539625366e+01 -1.7517783640915088e+01 0 0 0
2427 809 2 4.0999999999999998e-01 -3.2436798007320888e-01 -1.7088121664259294e+01 -1.6786402893266263e+01 0 0 0
7470 2490 2 4.0999999999999998e-01 -4.9537495717776636e+00 -1.9503558607776622e+01 -1.7470994574453254e+01 0 0 0
5054 1685 2 4.0999999999999998e-01 -3.4748779944695123e+00 -1.9471113244404812e+01 -1.4019352687936795e+01 0 0 0
5053 1685 1 -8.1999999999999995e-01 -4.4226179787606128e+00 -1.9629881001408155e+01 -1.3958644708058117e+01 0 0 0
270 90 2 4.0999999999999998e-01 -9.4213052958099652e-01 -1.8876175054701893e+01 -1.4747520443842980e+01 0 0 0
268 90 1 -8.1999999999999995e-01 -1.6792150546078481e+00 -1.9263319027376944e+01 -1.5230820216270986e+01 0 0 0
5149 1717 1 -8.1999999999999995e-01 -2.0592228545112832e+00 -2.0578439101830472e+01 -1.7816813743858290e+01 0 0 0
4427 1476 2 4.0999999999999998e-01 -6.7609716738184122e+00 -1.9252832278790375e+01 -1.1314468810304774e+01 0 0 0
5055 1685 2 4.0999999999999998e-01 -4.7888780385597123e+00 -1.9263558454335765e+01 -1.4770532701564537e+01 0 0 0
5150 1717 2 4.0999999999999998e-01 -2.7837254356131211e+00 -1.9960654627734225e+01 -1.7683430926747025e+01 0 0 0
4366 1456 1 -8.1999999999999995e-01 -2.4881552116961103e-01 -1.7651084490775901e+01 -1.9807164548057845e+01 0 0 0
3728 1243 2 4.0999999999999998e-01 -5.0253043282240597e+00 -2.0489407921223712e+01 -1.1243268626621729e+01 0 0 0
699 233 2 4.0999999999999998e-01 -8.9891332049902672e-01 -2.0124103942093612e+01 -1.2863793854824817e+01 0 0 0
4368 1456 2 4.0999999999999998e-01 -7.6446765129297489e-01 -1.6874546020292161e+01 -2.0045062751187253e+01 0 0 0
1472 491 2 4.0999999999999998e-01 -5.5074957454644906e+00 -1.4866928332211149e+01 -1.4208500705588165e+01 0 0 0
269 90 2 4.0999999999999998e-01 -1.4716643860688698e+00 -1.9120682682553952e+01 -1.6158793396921475e+01 0 0 0
3020 1007 2 4.0999999999999998e-01 -2.0941075072229367e+00 -1.4786602118879099e+01 -1.7062817693013542e+01 0 0 0
3019 1007 1 -8.1999999999999995e-01 -1.6058058048247119e+00 -1.5532726962122581e+01 -1.7424296390704608e+01 0 0 0
3021 1007 2 4.0999999999999998e-01 -1.1875554088665119e+00 -1.5194774154876026e+01 -1.8221462709529654e+01 0 0 0
5753 1918 2 4.0999999999999998e-01 -1.3508681180292506e+00 -1.4424122808904331e+01 -2.0747210851228722e+01 0 0 0
5752 1918 1 -8.1999999999999995e-01 -8.1679971323867306e-01 -1.5000479371045293e+01 -2.0191685204202212e+01 0 0 0
698 233 2 4.0999999999999998e-01 -6.1656919171092284e-02 -1.9600807983467483e+01 -1.1698321613634857e+01 0 0 0
5737 1913 1 -8.1999999999999995e-01 -3.7632877625408376e+00 -1.6323863104665918e+01 -1.2069261855125511e+01 0 0 0
7014 2338 2 4.0999999999999998e-01 -1.2711331410004973e+00 -2.0515689964662307e+01 -1.9478712647417080e+01 0 0 0
2799 933 2 4.0999999999999998e-01 -7.3467981039740948e-02 -2.1468739295932707e+01 -1.7589383470503439e+01 0 1 0
6922 2308 1 -8.1999999999999995e-01 -1.3160355150706877e+00 -1.5685472704374273e+01 -1.2733942443439807e+01 0 0 0
6924 2308 2 4.0999999999999998e-01 -2.1741383927293327e+00 -1.5852640296796004e+01 -1.2331252541443870e+01 0 0 0
7013 2338 2 4.0999999999999998e-01 -1.9940034783500771e+00 -2.1205321354395480e+01 -2.0634706402816434e+01 0 0 0
5117 1706 2 4.0999999999999998e-01 -3.6034146409825247e+00 -1.4801490593307868e+01 -2.1244154772763487e+01 0 0 0
5087 1696 2 4.0999999999999998e-01 -1.7715794953127165e+01 -1.4237225925561722e+01 -1.5848170983006098e+01 0 0 0
4574 1525 2 4.0999999999999998e-01 -1.5037959614581721e+01 -1.4194612796569256e+01 -1.9274576528155247e+01 0 0 0
4573 1525 1 -8.1999999999999995e-01 -1.5315330455684093e+01 -1.3670137181111249e+01 -1.8516643512516225e+01 0 0 0
4575 1525 2 4.0999999999999998e-01 -1.5986676848864976e+01 -1.4200858901181665e+01 -1.8077327975503110e+01 0 0 0
4512 1504 2 4.0999999999999998e-01 -2.0483204516754945e+01 -7.2454112002847246e+00 -1.9061373826176883e+01 0 0 0
4510 1504 1 -8.1999999999999995e-01 -2.0823661032110380e+01 -7.9344543524308317e+00 -1.9640602274236173e+01 0 0 0
5069 1690 2 4.0999999999999998e-01 -2.0418333017627273e+01 -7.9946913212698298e+00 -1.3114750032112921e+01 0 0 0
749 250 2 4.0999999999999998e-01 -1.8607573101475243e+01 -9.0604556244077212e+00 -1.0960399387582477e+01 0 0 0
231 77 2 4.0999999999999998e-01 -1.5352004519638335e+01 -1.1911663631001321e+01 -1.9372112891945743e+01 0 0 0
3507 1169 2 4.0999999999999998e-01 -1.5624708586580878e+01 -9.4066210079849082e+00 -1.9990993929015204e+01 0 0 0
4511 1504 2 4.0999999999999998e-01 -2.0066186291648073e+01 -8.4959058750508287e+00 -1.9832260525199974e+01 0 0 0
364 122 1 -8.1999999999999995e-01 -1.8864559827191542e+01 -1.1856513092162176e+01 -1.8693696001865145e+01 0 0 0
365 122 2 4.0999999999999998e-01 -1.9528003043226722e+01 -1.2346372620059268e+01 -1.8197122278576515e+01 0 0 0
2821 941 1 -8.1999999999999995e-01 -1.4814929231867318e+01 -1.0616304959989892e+01 -1.1908105240407055e+01 0 0 0
2823 941 2 4.0999999999999998e-01 -1.5116094650432510e+01 -1.1084193211271661e+01 -1.2692554488970453e+01 0 0 0
2410 804 1 -8.1999999999999995e-01 -2.0792951868187949e+01 -1.4155917722232358e+01 -2.0093478790457127e+01 0 0 0
2412 804 2 4.0999999999999998e-01 -2.0739374177021507e+01 -1.3205834526555087e+01 -2.0235802486640218e+01 0 0 0
4185 1395 2 4.0999999999999998e-01 -1.6771136090256174e+01 -1.1888577267065013e+01 -1.1430269175767517e+01 0 0 0
4667 1556 2 4.0999999999999998e-01 -1.6415983402935385e+01 -9.6930520125675592e+00 -1.6710495766189215e+01 0 0 0
4184 1395 2 4.0999999999999998e-01 -1.7184804257532793e+01 -1.3340489754669040e+01 -1.1664265531438687e+01 0 0 0
5724 1908 2 4.0999999999999998e-01 -2.0069186994706996e+01 -1.1239413198123566e+01 -1.6299995443128495e+01 0 0 0
5723 1908 2 4.0999999999999998e-01 -1.8766734729133919e+01 -1.0610335390808558e+01 -1.5809295244988196e+01 0 0 0
5722 1908 1 -8.1999999999999995e-01 -1.9717984011468420e+01 -1.0606904266510575e+01 -1.5665654368614920e+01 0 0 0
4183 1395 1 -8.1999999999999995e-01 -1.7273095789080529e+01 -1.2611455786117970e+01 -1.1042141924048385e+01 0 0 0
1025 342 2 4.0999999999999998e-01 -1.5706535828243766e+01 -7.2564500307787601e+00 -1.2840950520873859e+01 0 0 0
4666 1556 1 -8.1999999999999995e-01 -1.7044941708573429e+01 -1.0380884520179720e+01 -1.6472326585824128e+01 0 0 0
4668 1556 2 4.0999999999999998e-01 -1.7020520192931642e+01 -1.1006643639337900e+01 -1.7203392131300511e+01 0 0 0
366 122 2 4.0999999999999998e-01 -1.8717284027251438e+01 -1.2373576126312365e+01 -1.9490997886841331e+01 0 0 0
3505 1169 1 -8.1999999999999995e-01 -1.5795410325281948e+01 -8.4691773914581603e+00 -2.0120724503745446e+01 0 0 0
4197 1399 2 4.0999999999999998e-01 -1.6793026401391806e+01 -7.5430325627708079e+00 -1.5918603483962741e+01 0 0 0
230 77 2 4.0999999999999998e-01 -1.6708406904924768e+01 -1.1213086895552241e+01 -1.9283125763159447e+01 0 0 0
229 77 1 -8.1999999999999995e-01 -1.5762789284896776e+01 -1.1042402188147479e+01 -1.9339461892074230e+01 0 0 0
81 27 2 4.0999999999999998e-01 -1.6476726421748978e+01 -1.1174887578563125e+01 -1.4660514879464099e+01 0 0 0
79 27 1 -8.1999999999999995e-01 -1.6050592693558670e+01 -1.1885728753248353e+01 -1.4172132307802201e+01 0 0 0
6843 2281 2 4.0999999999999998e-01 -1.9006660173994629e+01 -1.2138829070735680e+01 -1.2891389483303421e+01 0 0 0
6842 2281 2 4.0999999999999998e-01 -1.9532950278148949e+01 -1.2139717898949227e+01 -1.4325819851789774e+01 0 0 0
6841 2281 1 -8.1999999999999995e-01 -1.9079636581194983e+01 -1.2688749395440379e+01 -1.3677823066432563e+01 0 0 0
1024 342 1 -8.1999999999999995e-01 -1.4919370737489350e+01 -7.4406433553540996e+00 -1.2319177943954418e+01 0 0 0
1699 567 1 -8.1999999999999995e-01 -1.8722391452059750e+01 -7.9473777894910000e+00 -1.5582780252807989e+01 0 0 0
1700 567 2 4.0999999999999998e-01 -1.9125437474652749e+01 -8.8197788016700756e+00 -1.5620383772238814e+01 0 0 0
3506 1169 2 4.0999999999999998e-01 -1.6476497674514647e+01 -8.4307935828461975e+00 -2.0799643798682535e+01 0 0 0
1701 567 2 4.0999999999999998e-01 -1.8241507361351903e+01 -7.9307023801377543e+00 -1.4749242535435103e+01 0 0 0
4196 1399 2 4.0999999999999998e-01 -1.5860822207997465e+01 -7.2511587032882456e+00 -1.7092207936553656e+01 0 0 0
4195 1399 1 -8.1999999999999995e-01 -1.5879660516239454e+01 -7.6302971283282783e+00 -1.6208566143167577e+01 0 0 0
1026 342 2 4.0999999999999998e-01 -1.4976032302433708e+01 -8.3770589421645383e+00 -1.2103282052154466e+01 0 0 0
6131 2044 2 4.0999999999999998e-01 -1.4329580585333876e+01 -1.2888465085236311e+01 -1.7097339607853105e+01 0 0 0
80 27 2 4.0999999999999998e-01 -1.5323867084417117e+01 -1.2175153537278652e+01 -1.4733555428323305e+01 0 0 0
6867 2289 2 4.0999999999999998e-01 -2.1464228119239838e+01 -1.3598718378201287e+01 -1.6836716134768324e+01 0 0 0
1750 584 1 -8.1999999999999995e-01 -1.7518906429682485e+01 -7.4079671012140995e+00 -1.3256058919164960e+01 0 0 0
1752 584 2 4.0999999999999998e-01 -1.7923670670148727e+01 -8.1374611571338562e+00 -1.2776728122204013e+01 0 0 0
6865 2289 1 -8.1999999999999995e-01 -2.0527777601608705e+01 -1.3388603714419956e+01 -1.6903663347570323e+01 0 0 0
748 250 1 -8.1999999999999995e-01 -1.9069575681599840e+01 -9.3950859266002507e+00 -1.1734738994790975e+01 0 0 0
5068 1690 1 -8.1999999999999995e-01 -2.1024946665272527e+01 -7.2757131596608797e+00 -1.2913906945662621e+01 0 0 0
750 250 2 4.0999999999999998e-01 -1.9741252699850996e+01 -9.9899700547230932e+00 -1.1387883807268876e+01 0 0 0
6866 2289 2 4.0999999999999998e-01 -2.0072555478865635e+01 -1.4225143752349316e+01 -1.6761915960149132e+01 0 0 0
6536 2179 2 4.0999999999999998e-01 -8.4775029704496649e+00 -1.3832568020038892e+01 -1.3921321211536160e+01 0 0 0
1372 458 1 -8.1999999999999995e-01 -8.5831012261843629e+00 -1.4241919045337809e+01 -1.2072152244570262e+01 0 0 0
4175 1392 2 4.0999999999999998e-01 -8.6002154621386158e+00 -9.5478315852798215e+00 -2.0545428985134418e+01 0 0 0
4771 1591 1 -8.1999999999999995e-01 -8.3720493024137319e+00 -1.2142113312104199e+01 -2.1152156040553809e+01 0 0 0
2231 744 2 4.0999999999999998e-01 -1.1270568721519540e+01 -1.2872316338332329e+01 -1.2309615833862514e+01 0 0 0
2822 941 2 4.0999999999999998e-01 -1.4211641326344072e+01 -1.1224683438844274e+01 -1.1469832462851270e+01 0 0 0
2230 744 1 -8.1999999999999995e-01 -1.1258861811804254e+01 -1.3823464184204768e+01 -1.2455277827125418e+01 0 0 0
6535 2179 1 -8.1999999999999995e-01 -8.6278013678316370e+00 -1.3179370643228550e+01 -1.4611155418729243e+01 0 0 0
3779 1260 2 4.0999999999999998e-01 -1.3162270684399909e+01 -1.4231011186527279e+01 -1.5238463970098277e+01 0 0 0
1839 613 2 4.0999999999999998e-01 -1.1212184185756165e+01 -1.3562611796665195e+01 -1.8744823661307286e+01 0 0 0
6613 2205 1 -8.1999999999999995e-01 -1.1459031481937819e+01 -1.0983618178652607e+01 -1.2399607765927355e+01 0 0 0
6615 2205 2 4.0999999999999998e-01 -1.0809180110374134e+01 -1.0783915501053764e+01 -1.3081954306330720e+01 0 0 0
6614 2205 2 4.0999999999999998e-01 -1.1975587628788727e+01 -1.0177833572615063e+01 -1.2304184631321876e+01 0 0 0
6130 2044 1 -8.1999999999999995e-01 -1.3614325229945409e+01 -1.2727593386418846e+01 -1.6473883297189431e+01 0 0 0
6132 2044 2 4.0999999999999998e-01 -1.3047329841217016e+01 -1.2081612558313012e+01 -1.6905117151758738e+01 0 0 0
6537 2179 2 4.0999999999999998e-01 -8.1399910839916050e+00 -1.3504990878530956e+01 -1.5374635161529216e+01 0 0 0
4085 1362 2 4.0999999999999998e-01 -1.0503708726872354e+01 -1.1232507015765730e+01 -1.9580568626443771e+01 0 0 0
4084 1362 1 -8.1999999999999995e-01 -1.1294464565980242e+01 -1.1771819780906565e+01 -1.9478467404110180e+01 0 0 0
4086 1362 2 4.0999999999999998e-01 -1.1782635198313454e+01 -1.1364217808687281e+01 -1.8756662212738281e+01 0 0 0
1373 458 2 4.0999999999999998e-01 -9.4877472460325158e+00 -1.4055853265771574e+01 -1.1801117532668101e+01 0 0 0
2539 847 1 -8.1999999999999995e-01 -1.3128850651454401e+01 -1.0374129745797415e+01 -1.8090210081635384e+01 0 0 0
1703 568 2 4.0999999999999998e-01 -7.3393603773156340e+00 -1.0529473316262923e+01 -1.7472326658555957e+01 0 0 0
2540 847 2 4.0999999999999998e-01 -1.2799299113671720e+01 -9.4697155528034020e+00 -1.8100382139198260e+01 0 0 0
2541 847 2 4.0999999999999998e-01 -1.3958885430022431e+01 -1.0343009609598825e+01 -1.8575136319558410e+01 0 0 0
6699 2233 2 4.0999999999999998e-01 -8.3549676813666665e+00 -1.1203415703515581e+01 -1.3565793401365578e+01 0 0 0
5168 1723 2 4.0999999999999998e-01 -1.2882153710348186e+01 -8.1458809449086385e+00 -1.9970601531465121e+01 0 0 0
5167 1723 1 -8.1999999999999995e-01 -1.2706999773631139e+01 -7.8543716409016007e+00 -1.9070517586888293e+01 0 0 0
6697 2233 1 -8.1999999999999995e-01 -7.7920413252687091e+00 -1.0598125776123521e+01 -1.3071944476493536e+01 0 0 0
6698 2233 2 4.0999999999999998e-01 -7.4970660184075211e+00 -9.9490449859269035e+00 -1.3717784521190211e+01 0 0 0
4288 1430 1 -8.1999999999999995e-01 -8.3666923529375126e+00 -8.9565803412265836e+00 -1.7687894353351787e+01 0 0 0
4289 1430 2 4.0999999999999998e-01 -8.9245782321855032e+00 -8.2806293347970250e+00 -1.7290313816996868e+01 0 0 0
4290 1430 2 4.0999999999999998e-01 -8.7499511268842447e+00 -9.1183332082921087e+00 -1.8556019599110847e+01 0 0 0
2232 744 2 4.0999999999999998e-01 -1.1892440030002609e+01 -1.3975337983896988e+01 -1.3164439120445403e+01 0 0 0
6651 2217 2 4.0999999999999998e-01 -1.2881763324952594e+01 -7.8004842310763198e+00 -1.1929904139427887e+01 0 0 0
6650 2217 2 4.0999999999999998e-01 -1.2242531595076542e+01 -8.7352516213247888e+00 -1.0904567496218514e+01 0 0 0
469 157 1 -8.1999999999999995e-01 -1.0131820266393145e+01 -8.1743940332602367e+00 -1.3875204718017836e+01 0 0 0
470 157 2 4.0999999999999998e-01 -1.0896628265554908e+01 -8.3388075812778304e+00 -1.3314229114022851e+01 0 0 0
4174 1392 1 -8.1999999999999995e-01 -9.4785052403306835e+00 -9.5591360223164781e+00 -2.0151415027899120e+01 0 0 0
4176 1392 2 4.0999999999999998e-01 -9.9743482153395409e+00 -8.8850478092052096e+00 -2.0628183925384270e+01 0 0 0
773 258 2 4.0999999999999998e-01 -1.2057223833913875e+01 -1.2928176962854467e+01 -2.0817954971584623e+01 0 0 1
660 220 2 4.0999999999999998e-01 -7.1657860848303923e+00 -9.0175005198741367e+00 -1.6054311853447956e+01 0 0 0
4772 1591 2 4.0999999999999998e-01 -7.9583603767165645e+00 -1.2167291658346601e+01 -2.0283324502453596e+01 0 0 0
6649 2217 1 -8.1999999999999995e-01 -1.2232499264329176e+01 -8.5053245358259666e+00 -1.1838799570553949e+01 0 0 0
6552 2184 2 4.0999999999999998e-01 -1.1265407267008728e+01 -7.5176615801768936e+00 -1.7103837815492710e+01 0 0 0
471 157 2 4.0999999999999998e-01 -1.0362003938887232e+01 -7.3937698654986086e+00 -1.4389432400829932e+01 0 0 0
1124 375 2 4.0999999999999998e-01 -1.3647272645457747e+01 -8.3138883612163035e+00 -1.6008134559250731e+01 0 0 0
1123 375 1 -8.1999999999999995e-01 -1.2969806458136427e+01 -7.6355659354919254e+00 -1.5917129065083250e+01 0 0 0
2369 790 2 4.0999999999999998e-01 -7.1897612034636662e+00 -7.2073282233960754e+00 -1.3800062077872242e+01 0 0 0
4773 1591 2 4.0999999999999998e-01 -9.3178068833411558e+00 -1.2121708501028396e+01 -2.0977978257658798e+01 0 0 0
5140 1714 1 -8.1999999999999995e-01 -6.9963383847868741e+00 -9.8221090253171877e+00 -2.1222343768928599e+01 0 0 0
3750 1250 2 4.0999999999999998e-01 -1.1536342799079584e+00 -1.4072630695569039e+01 -1.3679991184817229e+01 0 0 0
7128 2376 2 4.0999999999999998e-01 -1.2868836352843260e+00 -1.2240915492726295e+01 -1.7198501797896625e+01 0 0 0