
# set up simulation
units           real
atom_style      full
boundary        p p p
pair_style      lj/cut/coul/long 12
kspace_style    ewald 0.0001
pair_modify     tail yes
pair_modify     mix arithmetic
special_bonds   amber

bond_style      harmonic
angle_style     harmonic

read_data       nvt.data
  orthogonal box = (-12.6713 -12.6824 -12.6758) to (12.6713 12.6824 12.6758)
  2 by 4 by 2 MPI processor grid
  reading atoms ...
  648 atoms
  reading velocities ...
  648 velocities
  scanning bonds ...
  1 = max bonds/atom
  scanning angles ...
  1 = max angles/atom
  reading bonds ...
  432 bonds
  reading angles ...
  216 angles
  2 = max # of 1-2 neighbors
  1 = max # of 1-3 neighbors
  1 = max # of 1-4 neighbors
  2 = max # of special neighbors

neighbor        2.0 bin
neigh_modify    delay 0 every 1 check yes page 1000000 one 20000
timestep        1.0

## create velocity profile
velocity        all zero linear units box
dump            DUMP all custom 2 nvt.dump id type x y z vx vy vz mol mass
thermo_style    custom step vol temp press ke pe etotal enthalpy evdwl ecoul epair ebond eangle edihed eimp emol elong etail lx ly lz xy xz yz density
thermo          1

## thermostat and integrator
#minimize       1e-4 1e-6 10000 10000

fix             NVT all nvt temp 300 300 100.0

restart         50000 restart.nvt.1 restart.nvt.2
run             100
Ewald initialization ...
  G vector (1/distance) = 0.203418
  estimated absolute RMS force accuracy = 0.0332238
  estimated relative force accuracy = 0.000100053
  KSpace vectors: actual max1d max3d = 257 5 665
                  kxmax kymax kzmax  = 5 5 5
Neighbor list info ...
  1 neighbor list requests
  update every 1 steps, delay 0 steps, check yes
  master list distance cutoff = 14
  ghost atom cutoff = 14
Memory usage per processor = 6.76376 Mbytes
Step Volume Temp Press KinEng PotEng TotEng Enthalpy E_vdwl E_coul E_pair E_bond E_angle E_dihed E_impro E_mol E_long E_tail Lx Ly Lz Xy Xz Yz Density 
       0    16296.254    108.63491    9456.4844    209.51157   -2077.7505    -1868.239    379.22836    442.49912    5771.5979   -2077.7536  0.003058062 1.0525998e-08            0            0 0.0030580726   -8291.8506   -2.1699155    25.342563    25.364776     25.35165            0            0            0   0.39652758 
       1    16296.254     124.1809    7881.4684    239.49331   -2109.9461   -1870.4528    2.6897225    440.46632    5738.6384   -2112.6245    2.5584927   0.11998272            0            0    2.6784754   -8291.7293   -2.1699155    25.342563    25.364776     25.35165            0            0            0   0.39652758 
       2    16296.254    155.62136    3411.8782    300.12888   -2175.0709    -1874.942   -1064.0609    438.19493     5641.738   -2211.5604     34.70784    1.7816875            0            0    36.489528   -8291.4933   -2.1699155    25.342563    25.364776     25.35165            0            0            0   0.39652758 
       3    16296.254    171.30822    -2883.049    330.38231   -2207.1206   -1876.7383   -2561.9357    435.85683    5504.8526   -2350.4635    135.32524    8.0176797            0            0    143.34292    -8291.173   -2.1699155    25.342563    25.364776     25.35165            0            0            0   0.39652758 
       4    16296.254    158.31846   -9225.0953    305.33046   -2179.3376   -1874.0072   -4066.4816    433.67372    5363.8459   -2493.3022    292.23141    21.733111            0            0    313.96452   -8290.8218   -2.1699155    25.342563    25.364776     25.35165            0            0            0   0.39652758 
       5    16296.254    135.45636   -13547.571    261.23898   -2131.1295   -1869.8905   -5089.6626    431.84041    5257.6843   -2600.9833    425.62527    44.228556            0            0    469.85383   -8290.5081   -2.1699155    25.342563    25.364776     25.35165            0            0            0   0.39652758 
       6    16296.254    130.99547   -14310.701    252.63577   -2121.6035   -1868.9677   -5270.1082    430.47584    5215.1444   -2644.6728    448.35807    74.711255            0            0    523.06933   -8290.2931   -2.1699155    25.342563    25.364776     25.35165            0            0            0   0.39652758 
       7    16296.254    150.35285   -11248.871    289.96812   -2162.1938   -1872.2257    -4545.679    429.57897    5243.2778   -2617.3505    344.63946    110.51716            0            0    455.15662   -8290.2072   -2.1699155    25.342563    25.364776     25.35165            0            0            0   0.39652758 
       8    16296.254    169.92712   -5501.8155    327.71875   -2203.3788     -1875.66   -3183.2443    429.03341    5325.2886   -2535.9182    184.96928    147.57013            0            0    332.53941   -8290.2402   -2.1699155    25.342563    25.364776     25.35165            0            0            0   0.39652758 
       9    16296.254    164.11355     951.9687    316.50679    -2191.412   -1874.9052   -1648.6564     428.6444    5428.1937    -2433.513    61.201716    180.89928            0            0    242.10099   -8290.3511   -2.1699155    25.342563    25.364776     25.35165            0            0            0   0.39652758 
      10    16296.254     135.2773    6144.5608    260.89365   -2131.3459   -1870.4523   -410.11046    428.19871    5515.6218   -2346.6673    9.9547466    205.36664            0            0    215.32138   -8290.4879   -2.1699155    25.342563    25.364776     25.35165            0            0            0   0.39652758 
      11    16296.254      112.627    8725.0801    217.21065   -2083.9723   -1866.7616    206.87711    427.52731    5559.9202   -2303.1574    2.4037533    216.78135            0            0     219.1851   -8290.6049   -2.1699155    25.342563    25.364776     25.35165            0            0            0   0.39652758 
      12    16296.254    120.53322    8101.0434    232.45845   -2100.0286   -1867.5701     57.75749    426.55646     5548.013   -2316.1021    2.9046374    213.16892            0            0    216.07356   -8290.6716   -2.1699155    25.342563    25.364776     25.35165            0            0            0   0.39652758 
      13    16296.254    151.51791    4392.9683    292.21504   -2163.8478   -1871.6327   -827.58166    425.32949    5483.4012   -2381.9463    22.613754    195.48476            0            0    218.09852    -8290.677   -2.1699155    25.342563    25.364776     25.35165            0            0            0   0.39652758 
      14    16296.254    174.32617   -1537.0927    336.20268   -2210.4711   -1874.2684   -2239.5803    423.99348    5385.4871   -2481.1527    103.45833    167.22321            0            0    270.68155   -8290.6333   -2.1699155    25.342563    25.364776     25.35165            0            0            0   0.39652758 
      15    16296.254    168.08671   -8049.5136    324.16936   -2196.3308   -1872.1615   -3785.2423    422.74657    5286.7455   -2581.0854    251.54815    133.20643            0            0    384.75458   -8290.5775   -2.1699155    25.342563    25.364776     25.35165            0            0            0   0.39652758 
      16    16296.254    144.34055   -13059.492    278.37288   -2146.0026   -1867.6297   -4971.4027    421.78722    5223.4535   -2645.3224    400.97738    98.342401            0            0    499.31978   -8290.5631   -2.1699155    25.342563    25.364776     25.35165            0            0            0   0.39652758 
      17    16296.254    132.73506   -14778.567    255.99072   -2121.2093   -1865.2186   -5377.5541    421.24731    5223.8724   -2645.5197    457.48815    66.822246            0            0    524.31039   -8290.6394   -2.1699155    25.342563    25.364776     25.35165            0            0            0   0.39652758 
      18    16296.254    147.01758   -12563.632    283.53576    -2150.762   -1867.2263   -4853.1513    421.16061    5295.3187   -2574.3485    381.90416    41.682312            0            0    423.58647   -8290.8278   -2.1699155    25.342563    25.364776     25.35165            0            0            0   0.39652758 
      19    16296.254    169.55195   -7227.6452     326.9952   -2197.6477   -1870.6525   -3588.4047    421.44878    5420.9404   -2448.7216     226.5985    24.475329            0            0    251.07383   -8291.1108   -2.1699155    25.342563    25.364776     25.35165            0            0            0   0.39652758 
      20    16296.254    171.48363   -624.39402    330.72059   -2201.5862   -1870.8656   -2019.2617    421.94834    5566.2341   -2303.2564    86.670482    14.999688            0            0    101.67017   -8291.4388   -2.1699155    25.342563    25.364776     25.35165            0            0            0   0.39652758 
      21    16296.254    145.87307    5194.3858    281.32848   -2148.2469   -1866.9184   -632.39912    422.46105    5692.1503   -2177.1385    17.519594    11.372058            0            0    28.891652   -8291.7498   -2.1699155    25.342563    25.364776     25.35165            0            0            0   0.39652758 
      22    16296.254    116.62076    8685.6123    224.91294   -2087.1365   -1862.2236    202.03511      422.812    5767.7105   -2101.4638    3.4719046    10.855388            0            0    14.327293   -8291.9862   -2.1699155    25.342563    25.364776     25.35165            0            0            0   0.39652758 
      23    16296.254    112.87383    9042.6569    217.68667   -2079.1624   -1861.4757    287.63967    422.91518    5775.5303   -2093.6578    3.0930894    11.402332            0            0    14.495421   -8292.1033   -2.1699155    25.342563    25.364776     25.35165            0            0            0   0.39652758 
      24    16296.254    137.16016     6181.961    264.52491   -2129.3443   -1864.8194   -395.58893    422.79458    5714.6874   -2154.5926    12.253266    12.994979            0            0    25.248246   -8292.0746   -2.1699155    25.342563    25.364776     25.35165            0            0            0   0.39652758 
      25    16296.254    162.67398    739.93511    313.73044   -2181.6777   -1867.9472   -1692.0912    422.57885    5600.2758   -2269.0456    69.725753    17.642193            0            0    87.367946   -8291.9003   -2.1699155    25.342563    25.364776     25.35165            0            0            0   0.39652758 
      26    16296.254    162.71794    -5864.876    313.81523   -2180.6361   -1866.8209   -3260.6916    422.45637    5461.5966   -2407.5623    198.93061    27.995554            0            0    226.92617   -8291.6152   -2.1699155    25.342563    25.364776     25.35165            0            0            0   0.39652758 
      27    16296.254    139.54869   -11614.845    269.13139    -2131.417   -1862.2856    -4622.718    422.61583    5336.2214   -2532.4496    355.30102    45.731552            0            0    401.03258   -8291.2868   -2.1699155    25.342563    25.364776     25.35165            0            0            0   0.39652758 
      28    16296.254    120.76058   -14524.009    232.89694   -2091.6219   -1858.7249   -5310.5611    423.18429     5259.539   -2608.2726    445.93066    70.720017            0            0    516.65067   -8290.9958   -2.1699155    25.342563    25.364776     25.35165            0            0            0   0.39652758 
      29    16296.254    127.65818   -13519.947    246.19955   -2105.6248   -1859.4252   -5072.6319    424.18519    5251.2514   -2615.3703    408.68118    101.06429            0            0    509.74547   -8290.8068   -2.1699155    25.342563    25.364776     25.35165            0            0            0   0.39652758 
      30    16296.254    151.16404   -8980.5225    291.53256    -2154.392   -1862.8594   -3997.2076     425.5361    5307.3517   -2557.8566    269.90973     133.5549            0            0    403.46463   -8290.7444   -2.1699155    25.342563    25.364776     25.35165            0            0            0   0.39652758 
      31    16296.254    162.25241   -2532.7417    312.91742   -2177.1607   -1864.2433   -2466.1852    427.06352    5402.6283    -2461.096    119.75737    164.17796            0            0    283.93532   -8290.7878   -2.1699155    25.342563    25.364776     25.35165            0            0            0   0.39652758 
      32    16296.254    145.29454    3717.9135    280.21275   -2141.3561   -1861.1434   -977.52861    428.55871    5501.3452   -2360.9819    30.978306    188.64744            0            0    219.62575   -8290.8858   -2.1699155    25.342563    25.364776     25.35165            0            0            0   0.39652758 
      33    16296.254    116.77549    7993.6737    225.21136   -2081.3895   -1856.1781    43.631572    429.83343    5570.3638   -2290.7808    6.2622174    203.12908            0            0     209.3913    -8290.978   -2.1699155    25.342563    25.364776     25.35165            0            0            0   0.39652758 
      34    16296.254    107.82562    9246.1355    207.95077   -2061.9769   -1854.0261    343.44881    430.77343     5588.359   -2271.8823    4.7222294    205.18317            0            0    209.90539   -8291.0147   -2.1699155    25.342563    25.364776     25.35165            0            0            0   0.39652758 
      35    16296.254    129.71436    7179.7172    250.16504   -2106.6352   -1856.4702   -150.10878    431.36856    5549.3765   -2310.2233    9.0300688    194.55797            0            0    203.58804   -8290.9683   -2.1699155    25.342563    25.364776     25.35165            0            0            0   0.39652758 
      36    16296.254    161.06077    2241.3984    310.61924   -2170.7988   -1860.1796   -1327.4795     431.7113    5463.9769   -2395.1529    51.069154    173.28495            0            0     224.3541   -8290.8411   -2.1699155    25.342563    25.364776     25.35165            0            0            0   0.39652758 
      37    16296.254    171.26522   -4314.2357    330.29938   -2190.6523   -1860.3529   -2885.6921    431.96364    5357.8908   -2500.8122    165.19753    144.96235            0            0    310.15988   -8290.6666   -2.1699155    25.342563    25.364776     25.35165            0            0            0   0.39652758 
      38    16296.254    153.86015   -10533.263    296.73223   -2152.9773   -1856.2451    -4359.624     432.3094    5266.3619   -2591.8324    325.13987    113.71522            0            0    438.85509   -8290.5038   -2.1699155    25.342563    25.364776     25.35165            0            0            0   0.39652758 
      39    16296.254    132.56055   -14311.912    255.65417   -2107.6149   -1851.9607   -5253.3891    432.89747    5223.5902   -2633.9318    442.93512    83.381785            0            0    526.31691   -8290.4194   -2.1699155    25.342563    25.364776     25.35165            0            0            0   0.39652758 
      40    16296.254    133.80165   -14260.941    258.04773   -2109.3923   -1851.3446   -5240.6591    433.79958    5250.1609   -2606.5028    440.05708    57.053456            0            0    497.11053   -8290.4633   -2.1699155    25.342563    25.364776     25.35165            0            0            0   0.39652758 
      41    16296.254    156.92738   -10399.752    302.64764   -2157.1401   -1854.4924   -4326.1408     434.9913    5342.6767   -2512.9783    319.04953    36.788674            0            0     355.8382   -8290.6463   -2.1699155    25.342563    25.364776     25.35165            0            0            0   0.39652758 
      42    16296.254    175.24124     -4114.73    337.96747   -2194.7727   -1856.8052    -2834.729    436.35787    5475.7798   -2378.7977    160.67147    23.353564            0            0    184.02503   -8290.9353   -2.1699155    25.342563    25.364776     25.35165            0            0            0   0.39652758 
      43    16296.254    166.42475    2504.4806    320.96412   -2175.8627   -1854.8986   -1259.6733    437.73787    5611.4299   -2242.0988    50.142602    16.093502            0            0    66.236104   -8291.2666   -2.1699155    25.342563    25.364776     25.35165            0            0            0   0.39652758 
      44    16296.254    138.18925     7526.711     266.5096   -2116.5012   -1849.9916   -61.162186    438.97405    5712.9012    -2139.693    9.9303702    13.261483            0            0    23.191853   -8291.5682   -2.1699155    25.342563    25.364776     25.35165            0            0            0   0.39652758 
      45    16296.254    120.39029    9691.7434     232.1828   -2078.8879    -1846.705    456.67491    439.96833    5754.5065   -2097.3049    5.4060756    13.010979            0            0    18.417054   -8291.7798   -2.1699155    25.342563    25.364776     25.35165            0            0            0   0.39652758 
      46    16296.254    132.21311    8507.6196     254.9841    -2103.011   -1848.0269    173.92928    440.71291     5725.911   -2125.2404    7.5897363      14.6397            0            0    22.229436   -8291.8644   -2.1699155    25.342563    25.364776     25.35165            0            0            0   0.39652758 
      47    16296.254    160.93914    4224.1722    310.38467   -2162.1548   -1851.7701   -847.83585    441.29663    5633.4825   -2217.0376     35.76764     19.11515            0            0     54.88279   -8291.8168   -2.1699155    25.342563    25.364776     25.35165            0            0            0   0.39652758 
      48    16296.254    175.96389   -2127.4591    339.36116   -2192.6332   -1853.2721   -2358.8928    441.87781     5499.312   -2350.4782    129.49458    28.350344            0            0    157.84492   -8291.6679   -2.1699155    25.342563    25.364776     25.35165            0            0            0   0.39652758 
      49    16296.254    162.44213   -8751.3908    313.28332   -2163.6651   -1850.3818   -3930.2737     442.6314    5358.1752   -2490.6764    283.16963    43.841678            0            0    327.01131   -8291.4831   -2.1699155    25.342563    25.364776     25.35165            0            0            0   0.39652758 
      50    16296.254    137.16301   -13493.018     264.5304   -2110.3374    -1845.807   -5052.6137     443.6982    5249.1155   -2598.5326    422.48765    65.707557            0            0    488.19521   -8291.3463   -2.1699155    25.342563    25.364776     25.35165            0            0            0   0.39652758 
      51    16296.254    129.23313   -14658.171    249.23695   -2093.2728   -1844.0359   -5327.7577    445.14387    5202.3726   -2643.8161    458.00536    92.537871            0            0    550.54323   -8291.3326   -2.1699155    25.342563    25.364776     25.35165            0            0            0   0.39652758 
      52    16296.254    147.32619   -11813.346    284.13095   -2130.5222   -1846.3913   -4654.0001    446.94484    5227.2197   -2617.3136    365.02498     121.7664            0            0    486.79138   -8291.4782   -2.1699155    25.342563    25.364776     25.35165            0            0            0   0.39652758 
      53    16296.254    170.05551   -6003.5517    327.96634   -2177.4808   -1849.5145   -3276.3435    448.99517    5308.3918   -2534.3792     206.7487    150.14974            0            0    356.89844   -8291.7662   -2.1699155    25.342563    25.364776     25.35165            0            0            0   0.39652758 
      54    16296.254    170.24765    773.71781    328.33692   -2177.2589    -1848.922    -1665.037    451.14406    5413.4788   -2427.5127    76.068126     174.1857            0            0    250.25382   -8292.1356   -2.1699155    25.342563    25.364776     25.35165            0            0            0   0.39652758 
      55    16296.254    146.02667    6427.1839    281.62471   -2126.2761   -1844.6514   -317.14022    453.23953     5505.284   -2333.9826    17.148216    190.55826            0            0    207.70647   -8292.5061   -2.1699155    25.342563    25.364776     25.35165            0            0            0   0.39652758 
      56    16296.254    123.67124    9458.4314    238.51039   -2078.9566   -1840.4462    407.48385    455.17332    5554.9357   -2282.6956    6.9949441    196.74404            0            0    203.73899   -8292.8047   -2.1699155    25.342563    25.364776     25.35165            0            0            0   0.39652758 
      57    16296.254    128.60404    9152.0905    248.02371     -2088.56   -1840.5363    334.58754     456.9104     5547.284   -2288.7884    8.5356408    191.69279            0            0    200.22843   -8292.9828   -2.1699155    25.342563    25.364776     25.35165            0            0            0   0.39652758 
      58    16296.254    156.88999    5571.7632    302.57555   -2146.8059   -1844.2304   -520.02203     458.4916     5484.184   -2350.3491    27.331162    176.21195            0            0    203.54311   -8293.0247   -2.1699155    25.342563    25.364776     25.35165            0            0            0   0.39652758 
      59    16296.254    179.36365   -426.10738    345.91788   -2192.7222   -1846.8043   -1948.0747    460.01346    5384.0814   -2448.8539    103.39201    152.73968            0            0    256.13169   -8292.9487   -2.1699155    25.342563    25.364776     25.35165            0            0            0   0.39652758 
      60    16296.254    173.80846   -7185.9994    335.20424   -2180.0836   -1844.8794   -3552.7338    461.59912    5278.6163   -2552.5891    247.87155    124.63391            0            0    372.50546   -8292.8045   -2.1699155    25.342563    25.364776     25.35165            0            0            0   0.39652758 
      61    16296.254    149.09867   -12554.668    287.54932   -2127.5791   -1840.0297   -4823.8243    463.35698    5204.8334   -2624.4712    401.47783    95.414294            0            0    496.89212   -8292.6616   -2.1699155    25.342563    25.364776     25.35165            0            0            0   0.39652758 
      62    16296.254    134.54811   -14632.431    259.48734   -2096.5542   -1837.0669   -5314.6712     465.3498    5192.4717   -2634.7674    469.96743    68.245774            0            0     538.2132   -8292.5889   -2.1699155    25.342563    25.364776     25.35165            0            0            0   0.39652758 
      63    16296.254    146.80388   -12627.505    283.12362   -2121.6164   -1838.4928   -4839.5979    467.57387    5251.7568   -2573.2981    406.05803    45.623686            0            0    451.68172   -8292.6288   -2.1699155    25.342563    25.364776     25.35165            0            0            0   0.39652758 
      64    16296.254    171.32177   -7254.6548    330.40844   -2172.3132   -1841.9048   -3566.0762     469.9639    5368.0949   -2454.7208    253.30592    29.101599            0            0    282.40752   -8292.7796   -2.1699155    25.342563    25.364776     25.35165            0            0            0   0.39652758 
      65    16296.254    178.86377     -373.643    344.95383   -2187.6013   -1842.6475   -1931.4491    472.40779    5507.9951   -2312.5932    105.96199    19.029901            0            0    124.99189   -8292.9961   -2.1699155    25.342563    25.364776     25.35165            0            0            0   0.39652758 
      66    16296.254    158.54285    5854.2709    305.76323   -2144.8887   -1839.1255   -447.77515    474.78598    5631.9522   -2186.4701    27.070402    14.511011            0            0    41.581413   -8293.2083   -2.1699155    25.342563    25.364776     25.35165            0            0            0   0.39652758 
      67    16296.254    130.58694    9737.1995    251.84789   -2086.0539    -1834.206    479.97723     476.9989      5707.55   -2108.7962    8.8544403     13.88789            0            0     22.74233   -8293.3451   -2.1699155    25.342563    25.364776     25.35165            0            0            0   0.39652758 
      68    16296.254    124.41098    10358.019    239.93703    -2072.643    -1832.706    629.02377    478.99988    5715.7992   -2098.5561    10.141563    15.771532            0            0    25.913095   -8293.3551   -2.1699155    25.342563    25.364776     25.35165            0            0            0   0.39652758 
      69    16296.254    146.18871    7587.0523    281.93723   -2117.5561   -1835.6189   -32.448577    480.80087    5654.3032    -2158.115    20.583157    19.975741            0            0    40.558898   -8293.2191   -2.1699155    25.342563    25.364776     25.35165            0            0            0   0.39652758 
      70    16296.254    172.00573    2070.5076    331.72752    -2170.534   -1838.8065   -1346.7211    482.46303    5537.6513   -2272.8424    74.766219    27.542117            0            0    102.30834   -8292.9567   -2.1699155    25.342563    25.364776     25.35165            0            0            0   0.39652758 
      71    16296.254    174.30744   -4754.3371    336.16656   -2174.4318   -1838.2653   -2968.2008    484.07747    5394.6136    -2413.935    199.68852    39.814686            0            0    239.50321   -8292.6261   -2.1699155    25.342563    25.364776     25.35165            0            0            0   0.39652758 
      72    16296.254    152.23234   -10816.456    293.59288   -2127.5022   -1833.9094   -4404.5932    485.73345    5263.4709   -2543.1074    358.22428    57.380897            0            0    415.60517   -8292.3118   -2.1699155    25.342563    25.364776     25.35165            0            0            0   0.39652758 
      73    16296.254    132.08264   -14040.908    254.73249   -2084.6071   -1829.8746   -5166.8952    487.49135    5180.7763   -2623.8322    459.62447    79.600639            0            0    539.22511   -8292.0999   -2.1699155    25.342563    25.364776     25.35165            0            0            0   0.39652758 
      74    16296.254    137.54548   -13239.172    265.26803   -2095.2771    -1830.009   -4976.4857    489.36372     5167.838   -2634.8442    434.81175    104.75534            0            0    539.56709   -8292.0459   -2.1699155    25.342563    25.364776     25.35165            0            0            0   0.39652758 
      75    16296.254    163.01123   -8695.9852    314.38088   -2147.7018   -1833.3209   -3900.0448    491.31546    5222.3492   -2578.4888     300.3395    130.44752            0            0    430.78702   -8292.1534   -2.1699155    25.342563    25.364776     25.35165            0            0            0   0.39652758 
      76    16296.254    179.85954   -2036.3251    346.87425   -2182.0722    -1835.198   -2319.1595    493.27359    5319.6425   -2479.4581    143.42635     153.9595            0            0    297.38585   -8292.3741   -2.1699155    25.342563    25.364776     25.35165            0            0            0   0.39652758 
      77    16296.254    168.79927     4540.239     325.5436    -2158.217   -1832.6734   -753.62135    495.15274    5423.2053   -2374.2721     43.52717    172.52796            0            0    216.05513   -8292.6301   -2.1699155    25.342563    25.364776     25.35165            0            0            0   0.39652758 
      78    16296.254    142.02948     9127.097    273.91579   -2101.4395   -1827.5237    341.66004    496.86465    5498.4071   -2297.5724    12.466604    183.66632            0            0    196.13293   -8292.8442   -2.1699155    25.342563    25.364776     25.35165            0            0            0   0.39652758 
      79    16296.254    130.02764    10571.808    250.76923   -2075.5644   -1824.7952    687.74463    498.35682    5521.6286    -2272.978    11.772188    185.64142            0            0    197.41361   -8292.9634   -2.1699155    25.342563    25.364776     25.35165            0            0            0   0.39652758 
      80    16296.254    147.48804    8555.7346    284.44308   -2111.0879   -1826.6448    206.74658    499.61053    5485.6315   -2307.7271    18.649109    177.99014            0            0    196.63925   -8292.9691   -2.1699155    25.342563    25.364776     25.35165            0            0            0   0.39652758 
      81    16296.254    176.71658    3544.9335    340.81279   -2171.0217   -1830.2089   -987.70533    500.65525    5400.1432   -2392.0781    59.300424     161.7559            0            0    221.05633   -8292.8765   -2.1699155    25.342563    25.364776     25.35165            0            0            0   0.39652758 
      82    16296.254    187.28582   -3181.2866    361.19645   -2191.8239   -1830.6275   -2586.7053    501.55886     5290.586   -2500.5841    169.52711    139.23305            0            0    308.76016   -8292.7289   -2.1699155    25.342563    25.364776     25.35165            0            0            0   0.39652758 
      83    16296.254      169.834   -9642.7459    327.53915   -2154.2832    -1826.744    -4118.479    502.41281    5192.5126   -2597.6633    329.99378     113.3864            0            0    443.38018   -8292.5887   -2.1699155    25.342563    25.364776     25.35165            0            0            0   0.39652758 
      84    16296.254    146.06285   -13673.724    281.69449   -2103.8148   -1822.1203   -5071.8744    503.30643    5141.6745   -2647.5418    456.44187     87.28512            0            0    543.72699   -8292.5227   -2.1699155    25.342563    25.364776     25.35165            0            0            0   0.39652758 
      85    16296.254    143.98608   -13795.247    277.68926   -2098.7271   -1821.0379   -5099.6735    504.30742    5160.6045   -2627.6687    465.22947    63.712037            0            0    528.94151   -8292.5805   -2.1699155    25.342563    25.364776     25.35165            0            0            0   0.39652758 
      86    16296.254    166.37752   -9934.2496    320.87305   -2144.6197   -1823.7467   -4184.7616    505.44214    5248.4759   -2538.8547    349.36771    44.867289            0            0      394.235   -8292.7728   -2.1699155    25.342563    25.364776     25.35165            0            0            0   0.39652758 
      87    16296.254    187.63971   -3468.8147    361.87897   -2188.0025   -1826.1236   -2650.5365    506.68984    5380.8663   -2405.5069    185.45432    32.050036            0            0    217.50436   -8293.0631   -2.1699155    25.342563    25.364776     25.35165            0            0            0   0.39652758 
      88    16296.254    182.50468    3432.5861    351.97563   -2176.4519   -1824.4762   -1008.6736    507.98779    5519.3883   -2266.0043    64.178334    25.374121            0            0    89.552455   -8293.3804   -2.1699155    25.342563    25.364776     25.35165            0            0            0   0.39652758 
      89    16296.254    154.61098    8719.0974    298.18028   -2117.6721   -1819.4918    252.72503    509.25089    5625.9042   -2158.4905    17.027901    23.790434            0            0    40.818335   -8293.6456   -2.1699155    25.342563    25.364776     25.35165            0            0            0   0.39652758 
      90    16296.254     133.0458    11047.887    256.59001   -2072.1088   -1815.5188    810.16776    510.39168    5673.2132   -2110.1923    12.402542    25.680915            0            0    38.083457   -8293.7972   -2.1699155    25.342563    25.364776     25.35165            0            0            0   0.39652758 
      91    16296.254    140.46769     9908.672    270.90374   -2086.9354   -1816.0316     538.9045    511.35025    5649.5468    -2132.909    16.124779    29.848845            0            0    45.973624    -8293.806   -2.1699155    25.342563    25.364776     25.35165            0            0            0   0.39652758 
      92    16296.254    168.19095    5570.5293    324.37039   -2143.9324    -1819.562   -495.64689    512.10844    5560.0159   -2221.5553    41.425772    36.197124            0            0    77.622897   -8293.6796   -2.1699155    25.342563    25.364776     25.35165            0            0            0   0.39652758 
      93    16296.254    186.01833   -912.74937    358.75199   -2180.0739   -1821.3219   -2038.2497    512.69666      5426.06   -2354.7032    129.10625    45.523058            0            0    174.62931   -8293.4599   -2.1699155    25.342563    25.364776     25.35165            0            0            0   0.39652758 
      94    16296.254    175.84505   -7732.1468    339.13197   -2157.6397   -1818.5077   -3656.1618    513.18866    5282.3101   -2497.7168    281.39727    58.679806            0            0    340.07708   -8293.2156   -2.1699155    25.342563    25.364776     25.35165            0            0            0   0.39652758 
      95    16296.254    151.50413   -12703.945    292.18845   -2105.6831   -1813.4946   -4832.7668    513.68079     5168.373   -2610.9718    429.44103    75.847654            0            0    505.28868   -8293.0256   -2.1699155    25.342563    25.364776     25.35165            0            0            0   0.39652758 
      96    16296.254    142.79966   -14066.522    275.40115   -2086.4684   -1811.0672   -5154.1753    514.26617    5116.1328   -2662.5532    479.75632    96.328566            0            0    576.08488   -8292.9522   -2.1699155    25.342563    25.364776     25.35165            0            0            0   0.39652758 
      97    16296.254    161.74441   -11301.639    311.93769   -2124.8207    -1812.883   -4498.8773     515.0087    5137.4296   -2640.5758    397.02846    118.72664            0            0    515.75509   -8293.0141   -2.1699155    25.342563    25.364776     25.35165            0            0            0   0.39652758 
      98    16296.254    188.79414   -5420.3676    364.10538    -2179.966   -1815.8606   -3104.0877    515.92839    5218.7702   -2558.4762    237.31326    141.19692            0            0    378.51018   -8293.1748   -2.1699155    25.342563    25.364776     25.35165            0            0            0   0.39652758 
      99    16296.254    194.52066    1527.6246    375.14946   -2190.7669   -1815.6174   -1452.5558     516.9943    5327.5847   -2448.7795    96.419276    161.59331            0            0    258.01259   -8293.3585   -2.1699155    25.342563    25.364776     25.35165            0            0            0   0.39652758 
     100    16296.254    172.61114    7367.8383    332.89511   -2144.0319   -1811.1368    -60.06579    518.12609    5425.9461   -2349.4103    27.804868    177.57351            0            0    205.37838   -8293.4825   -2.1699155    25.342563    25.364776     25.35165            0            0            0   0.39652758 
Loop time of 0.228944 on 16 procs for 100 steps with 648 atoms

Pair  time (%) = 0.0610991 (26.6874)
Bond  time (%) = 0.000489876 (0.213972)
Kspce time (%) = 0.076934 (33.6039)
Neigh time (%) = 0.00170685 (0.745534)
Comm  time (%) = 0.0384035 (16.7742)
Outpt time (%) = 0.0445395 (19.4543)
Other time (%) = 0.00577101 (2.52071)

Nlocal:    40.5 ave 59 max 11 min
Histogram: 1 1 2 0 1 0 4 2 3 2
Nghost:    2150.38 ave 2408 max 1879 min
Histogram: 4 0 0 4 0 0 2 2 0 4
Neighs:    9934.19 ave 15718 max 2085 min
Histogram: 1 1 2 1 0 3 2 0 5 1

Total # of neighbors = 158947
Ave neighs/atom = 245.289
Ave special neighs/atom = 2
Neighbor list builds = 2
Dangerous builds = 0

write_restart   restart.nvt
Ewald initialization ...
  G vector (1/distance) = 0.203418
  estimated absolute RMS force accuracy = 0.0332238
  estimated relative force accuracy = 0.000100053
  KSpace vectors: actual max1d max3d = 257 5 665
                  kxmax kymax kzmax  = 5 5 5
write_data      restart.data
Ewald initialization ...
  G vector (1/distance) = 0.203418
  estimated absolute RMS force accuracy = 0.0332238
  estimated relative force accuracy = 0.000100053
  KSpace vectors: actual max1d max3d = 257 5 665
                  kxmax kymax kzmax  = 5 5 5
