ITEM: TIMESTEP
0
ITEM: NUMBER OF ATOMS
648
ITEM: BOX BOUNDS pp pp pp
-12.6713 12.6713
-12.6824 12.6824
-12.6758 12.6758
ITEM: ATOMS id type x y z vx vy vz mol mass 
244 1 -10.1877 -5.68274 -7.27552 -0.00387944 -0.00214299 -0.00531644 82 16 
245 2 -9.40398 -5.98032 -6.73008 0.0133199 0.0118573 -0.0226552 82 1.008 
246 2 -10.5102 -6.44377 -7.83866 -0.00494448 -0.00880346 0.00456985 82 1.008 
277 1 -6.65128 -8.17405 -7.04939 -0.00100134 -0.00121645 -0.00304518 93 16 
278 2 -7.12259 -7.36428 -6.69951 0.0226835 0.00324992 0.0180352 93 1.008 
279 2 -7.12165 -8.99718 -6.73084 -0.00948811 0.00389197 -0.00285004 93 1.008 
281 2 -4.29408 -9.32857 -11.8981 0.00358711 0.0116825 -0.00209004 94 1.008 
403 1 -5.95094 -4.2571 -6.85396 0.00299227 0.00173515 -0.00178615 135 16 
404 2 -5.34905 -4.84525 -7.39442 0.000866029 0.000625348 -0.00266121 135 1.008 
406 1 -7.83446 -6.01451 -5.7825 -0.00215586 -0.00127018 -0.00374788 136 16 
407 2 -7.39372 -5.17649 -6.10462 -0.00158833 -0.0053759 -0.0131577 136 1.008 
408 2 -7.59217 -6.17174 -4.82498 0.00769637 0.00271356 -0.00573951 136 1.008 
562 1 -4.46184 -6.51339 -7.5287 -5.53436e-05 0.00133232 0.00197701 188 16 
563 2 -5.22048 -7.16502 -7.54026 0.01453 -0.0154275 0.00283985 188 1.008 
280 1 -3.42319 -9.3479 -11.4068 0.00404356 -0.00405018 -0.00382089 94 16 
564 2 -4.02461 -6.52673 -6.6293 0.0263579 -0.0180243 -0.0113274 188 1.008 
571 1 -3.30715 -6.25516 -5.08127 0.00114514 -0.00357094 4.00218e-06 191 16 
573 2 -3.24974 -5.25947 -5.00652 0.00112692 -0.00386106 0.00182947 191 1.008 
40 1 -1.99919 -5.27178 -11.6538 0.000628866 -0.00324028 -0.00270674 14 16 
41 2 -1.51546 -5.81735 -12.3384 0.000631276 4.52145e-05 -0.00509893 14 1.008 
42 2 -2.38566 -5.87692 -10.9576 -0.00787133 -0.00717508 -0.0110675 14 1.008 
214 1 -2.85804 -7.07365 -9.70747 0.00136397 0.00472406 0.00202367 72 16 
215 2 -2.11813 -7.69753 -9.45532 -0.0261867 -0.0307813 -0.00574437 72 1.008 
216 2 -3.35602 -6.79753 -8.88525 -0.0017844 -0.00288804 0.00248304 72 1.008 
282 2 -3.28791 -8.47714 -10.9337 0.0169186 -0.0095784 0.00235616 94 1.008 
292 1 -1.52427 -9.46135 -9.21833 0.00320161 -0.00471202 -0.00336489 98 16 
293 2 -1.01313 -10.2695 -8.9253 0.00157178 -0.00783056 -0.0096423 98 1.008 
294 2 -2.00923 -9.66404 -10.0692 -0.0136217 -0.0036512 0.00616618 98 1.008 
33 2 5.36609 -6.04214 -12.4098 0.0236098 0.00895156 -0.0114447 11 1.008 
181 1 8.64385 -7.79357 -4.57695 0.00150451 0.00136039 -0.00151336 61 16 
182 2 9.6182 -7.57023 -4.54496 0.00368849 -0.00795306 -0.00794624 61 1.008 
183 2 8.18805 -7.20254 -5.24269 0.00329177 0.00379176 -0.000347234 61 1.008 
235 1 6.76496 -6.69178 -8.2916 0.00419384 -0.000839837 -0.000684343 79 16 
236 2 6.96544 -6.26496 -7.40961 0.000312448 0.00393518 -0.00229122 79 1.008 
237 2 6.53466 -7.65486 -8.1512 -0.007337 0.00286482 0.0047053 79 1.008 
508 1 7.06411 -5.57936 -5.67159 6.38792e-05 0.00251745 0.00218654 170 16 
509 2 7.02985 -5.69433 -4.67867 -0.0165902 0.00864778 0.00214654 170 1.008 
510 2 7.05855 -4.60444 -5.89468 -0.00415376 0.000870306 -0.00419499 170 1.008 
550 1 6.39817 -6.49644 -11.1055 -0.00113559 -0.000699543 -0.000935313 184 16 
551 2 6.29266 -6.35852 -10.1205 0.0128665 0.0157592 -0.0018865 184 1.008 
552 2 7.32994 -6.80262 -11.3013 -0.00378504 -0.00301893 -0.00910172 184 1.008 
405 2 -5.42045 -3.50243 -6.46754 0.00190489 0.00960601 -0.0160491 135 1.008 
82 1 -7.56707 1.8145 -4.75675 0.000510003 -0.000112946 0.00141771 28 16 
84 2 -7.14275 0.910255 -4.70604 0.000761638 -0.000832217 -0.0168038 28 1.008 
295 1 -8.7296 -3.26151 -6.77171 -0.00170132 -0.000400372 -0.003181 99 16 
296 2 -9.37395 -4.02177 -6.85602 0.00373136 -0.00579942 0.00569796 99 1.008 
297 2 -7.80251 -3.58826 -6.95614 0.00102805 0.00298714 0.00534158 99 1.008 
319 1 -5.02805 -1.7953 -5.3913 -0.000349984 0.00229927 0.00378926 107 16 
320 2 -6.0072 -1.60089 -5.33003 -0.00365674 -0.00814932 -0.0183375 107 1.008 
321 2 -4.57697 -1.07304 -5.91585 -0.00301824 -0.0153837 -0.0225962 107 1.008 
421 1 -7.83767 2.07255 -7.541 0.00289927 0.00343113 -0.00278989 141 16 
422 2 -7.7343 1.86886 -6.56729 -0.00437486 -0.022121 -0.0074886 141 1.008 
423 2 -8.80985 2.10293 -7.77384 0.00515186 -0.00992679 -0.0132781 141 1.008 
514 1 -5.15966 2.66782 -7.24636 -0.000172652 0.00230947 0.00271736 172 16 
515 2 -5.93244 2.35728 -7.80014 0.00889183 -0.0142618 -0.000387878 172 1.008 
516 2 -5.49903 3.06548 -6.39373 -0.0122003 -0.00509855 0.00122498 172 1.008 
541 1 -7.59713 -0.739438 -6.1764 -0.00163501 0.0028525 -0.00162658 181 16 
542 2 -7.96948 -1.65465 -6.33137 0.0155874 -0.00663569 0.0138196 181 1.008 
543 2 -7.60183 -0.227732 -7.03571 -0.022765 -0.0075405 -0.00751305 181 1.008 
597 2 -6.26628 3.30325 -4.50299 -0.0160064 0.0153544 -0.00158926 199 1.008 
595 1 -5.60552 3.93164 -4.91384 -0.00410345 0.00242962 -0.0018149 199 16 
608 2 -1.23196 -4.19705 -6.98333 -0.00760156 -0.00382766 -0.0103997 203 1.008 
413 2 -4.14528 1.13382 -6.82356 -0.0110101 -0.0105459 -0.012134 138 1.008 
475 1 -1.8209 -3.11856 -9.8385 -0.00134638 -0.00507283 -0.00328955 159 16 
477 2 -1.66251 -3.83536 -10.5178 -0.011301 0.0133391 -0.024803 159 1.008 
607 1 -1.11684 -3.23216 -7.22001 -7.24459e-05 -0.00213193 0.00078829 203 16 
609 2 -1.26312 -3.11 -8.20182 -0.0352303 0.0161135 0.00848204 203 1.008 
412 1 -3.68482 0.272257 -6.60916 -0.000279425 -0.00134865 0.00101523 138 16 
414 2 -3.32097 -0.129427 -7.44972 0.00785328 -0.00779706 0.00779852 138 1.008 
427 1 -3.43421 -1.07275 -9.02777 -0.00372714 0.00166731 0.000519238 143 16 
428 2 -2.95936 -1.9135 -9.28843 0.00684928 0.00660469 0.00443599 143 1.008 
429 2 -3.57827 -0.506012 -9.83914 -0.0233894 -0.0103535 -0.00419238 143 1.008 
430 1 -2.88884 4.12587 -5.40187 -0.000345469 -0.00101293 0.000450769 144 16 
432 2 -3.85161 4.06555 -5.13787 -0.00221853 0.00694481 -0.00518004 144 1.008 
10 1 2.35781 2.07457 -5.05427 -0.00033112 -0.00217872 -0.00200808 4 16 
11 2 1.55224 1.82678 -5.59273 0.00655445 0.00110984 -0.0135436 4 1.008 
13 1 -2.84449 -3.43094 -5.04227 0.000222929 0.0011964 0.000608596 5 16 
14 2 -2.36833 -3.23011 -5.89855 -0.00743105 -0.00633791 -0.00524629 5 1.008 
15 2 -3.57423 -2.76161 -4.90172 -0.0103041 -0.00872055 -0.008022 5 1.008 
16 1 0.681513 -1.45342 -6.18857 0.000108399 -0.00248778 -7.76518e-05 6 16 
17 2 0.492233 -1.76044 -5.25573 -0.0132388 -0.000968075 -0.00243484 6 1.008 
18 2 0.0639443 -1.91729 -6.82396 0.00426203 0.00215889 -0.00728157 6 1.008 
34 1 -0.973086 1.62678 -9.13392 0.000180506 0.00133632 -0.000871889 12 16 
35 2 -0.402354 1.40781 -8.34234 -0.0146721 -0.0188569 0.004067 12 1.008 
36 2 -1.74525 2.1915 -8.84215 -0.00926513 -0.0124728 0.000386388 12 1.008 
46 1 -2.72898 3.68971 -8.07295 -0.00248522 0.00441996 0.0014086 16 16 
47 2 -3.66746 3.43865 -7.83524 -0.00122272 0.00115273 0.00228798 16 1.008 
151 1 0.0311047 1.16411 -6.50532 0.00174161 0.00227366 0.00387818 51 16 
152 2 -0.648964 1.43107 -5.82229 0.00449603 0.00756415 0.00433446 51 1.008 
153 2 0.320993 0.221905 -6.33655 0.00116551 0.00319626 0.00911783 51 1.008 
190 1 3.15759 2.37473 -7.86919 0.00188444 0.00121854 -5.58899e-05 64 16 
191 2 3.01059 1.40488 -7.67411 0.00620947 -0.00154883 -0.0113259 64 1.008 
192 2 3.94375 2.47668 -8.47898 0.0112483 0.0128653 0.0142458 64 1.008 
370 1 0.196078 1.78806 -11.6327 -0.00393193 0.0012477 0.000761291 124 16 
371 2 1.10033 2.17499 -11.4513 0.000616181 -0.0113532 0.00409935 124 1.008 
372 2 -0.345201 1.7972 -10.7917 0.00315965 -0.0178137 0.00535523 124 1.008 
394 1 -2.09851 1.60918 -4.84175 0.000178164 -0.000201311 0.00341395 132 16 
395 2 -2.81079 0.966636 -5.12473 0.000930492 0.00388741 -0.00717287 132 1.008 
396 2 -2.37932 2.54095 -5.07245 0.0124911 0.000494537 -0.0080925 132 1.008 
431 2 -2.80945 4.0391 -6.39507 0.00564539 -0.0124802 0.00208618 144 1.008 
476 2 -1.41872 -2.26079 -10.1591 -0.0135016 0.00548357 0.0101369 159 1.008 
478 1 3.02048 -0.265248 -7.26831 0.000671243 -0.00309573 0.000903919 160 16 
479 2 2.18308 -0.805185 -7.18167 -0.00297408 0.00246823 -0.00154825 160 1.008 
480 2 3.68409 -0.567112 -6.58363 -0.00740222 -9.00053e-06 0.00984082 160 1.008 
493 1 -0.845538 -0.77723 -10.7344 0.00461164 -0.00329622 -0.00261967 165 16 
494 2 -0.834425 -0.0714261 -10.0259 0.00534642 0.00152843 -0.007655 165 1.008 
495 2 -0.603718 -0.369414 -11.615 -0.0181592 -0.00514773 -0.00956385 165 1.008 
626 2 4.1514 -1.66468 -4.34389 -0.00988823 -0.00603348 -0.0103328 209 1.008 
12 2 3.09337 2.36216 -5.66787 0.00663948 0.00330181 0.0091648 4 1.008 
264 2 2.3999 3.92252 -7.89355 0.0114324 0.00436286 -0.00470178 88 1.008 
469 1 2.72322 2.61285 -10.7669 -0.00285413 -0.00264897 -0.000751578 157 16 
471 2 2.66548 2.48476 -9.77663 0.00418857 0.00741983 0.000814375 157 1.008 
470 2 3.67769 2.75538 -11.0295 -0.00717764 0.0147442 -0.0064699 157 1.008 
625 1 4.53816 -1.35279 -5.21188 0.00138616 0.00408726 -0.0014678 209 16 
226 1 8.45216 1.21392 -5.04348 0.00114391 0.00034336 0.00136121 76 16 
227 2 7.50101 1.33552 -5.32777 -0.00671895 -0.0171279 0.0208841 76 1.008 
301 1 8.74818 -1.24322 -6.36143 0.000330298 -0.00487841 -0.00328408 101 16 
302 2 8.76133 -1.12865 -7.35489 0.0253985 0.00474015 -0.00167558 101 1.008 
303 2 8.61931 -0.352687 -5.92483 0.025561 -0.00456791 0.00310035 101 1.008 
379 1 6.82382 -2.83589 -5.25758 0.00433745 -0.00106474 -0.000133058 127 16 
380 2 7.05611 -3.19509 -4.35354 0.00111945 -0.004984 -0.00103573 127 1.008 
381 2 7.55505 -2.2314 -5.57408 0.00042098 0.00857896 0.00971977 127 1.008 
586 1 10.1797 2.54389 -6.83269 0.000664613 0.00132474 0.00115067 196 16 
587 2 10.8972 1.85236 -6.74713 -0.00987793 -0.0102706 -0.00599865 196 1.008 
588 2 9.44921 2.34909 -6.17798 0.00675826 0.0165186 0.0122596 196 1.008 
601 1 7.19619 -2.34076 -9.04931 -0.0051165 -0.00441002 -0.000347721 201 16 
602 2 7.16226 -3.03827 -9.76527 0.0173733 -0.00732402 0.00164677 201 1.008 
603 2 7.1427 -2.78055 -8.15265 0.0202529 -0.0044489 0.000968039 201 1.008 
613 1 5.56698 0.0443415 -8.47493 0.00105667 -0.00310151 -0.000859277 205 16 
614 2 6.08945 -0.739196 -8.81164 0.00240545 -0.00244735 0.000167867 205 1.008 
615 2 4.6849 -0.269478 -8.12318 -0.00833493 -0.00118818 -0.0232477 205 1.008 
619 1 5.95719 1.04326 -5.73415 0.000438636 0.000288904 0.00176467 207 16 
620 2 5.91782 0.810861 -6.70611 -0.00285729 0.0026074 0.00150211 207 1.008 
621 2 5.16977 0.644417 -5.26387 0.00221818 -0.000848908 0.00344662 207 1.008 
627 2 5.44544 -1.75486 -5.33619 -0.00282134 -0.00520848 -0.000767245 209 1.008 
640 1 5.35646 2.34759 -9.63694 0.00455331 0.000565755 -0.000293425 214 16 
641 2 6.11327 2.79172 -10.1168 0.00352723 -0.0062859 -0.00793184 214 1.008 
642 2 5.69776 1.54602 -9.14574 0.00261383 -0.00137577 -0.0024394 214 1.008 
559 1 -12.5542 7.48831 -4.71424 -0.00142567 0.000340399 0.00363139 187 16 
560 2 -12.4221 7.10439 -5.62826 -0.00537595 -0.00256283 0.00445279 187 1.008 
132 2 -12.13 6.3701 -7.98909 0.00767083 0.00345591 0.00887659 44 1.008 
596 2 -5.51535 4.74413 -4.33763 0.0177219 -0.00292665 0.00209 199 1.008 
48 2 -2.7417 4.44896 -8.72384 -0.00584924 0.00205079 -0.00105277 16 1.008 
22 1 1.37695 8.88835 -10.4777 -0.000438801 -0.00373548 -0.00157754 8 16 
23 2 2.01476 8.92119 -9.70806 -0.00485702 0.0428526 -2.9395e-06 8 1.008 
24 2 1.83817 9.20532 -11.3066 -0.020044 0.0253421 -0.00117598 8 1.008 
262 1 1.97005 4.80999 -8.0606 0.00165742 0.000496029 0.000814838 88 16 
263 2 1.68311 4.86665 -9.01702 0.0126539 0.00823536 -0.00186159 88 1.008 
333 2 0.795386 7.17328 -5.33401 -0.000950967 -0.000745193 0.00244721 111 1.008 
343 1 1.2919 7.209 -6.97187 1.24753e-05 0.0034283 0.00070384 115 16 
344 2 0.56664 7.49578 -7.598 -0.0121618 -0.0130587 0.00748858 115 1.008 
345 2 1.51396 6.24787 -7.13682 0.0146806 0.0064014 0.00408643 115 1.008 
565 1 -0.480095 8.21967 -8.62793 -0.00565932 0.00247138 -7.30859e-05 189 16 
566 2 -1.18569 8.92655 -8.57563 -0.0206212 -0.0113359 -0.0182753 189 1.008 
567 2 0.0806898 8.36806 -9.44266 -6.20767e-05 0.00172313 0.00383638 189 1.008 
526 1 3.3492 8.34129 -8.51581 -0.00110813 0.00201537 0.000577195 176 16 
527 2 2.62963 8.05997 -7.88071 -0.00998508 -0.00368853 -0.0122576 176 1.008 
170 2 -1.64354 4.68812 -4.27776 0.0171971 -0.00114576 -0.0107011 57 1.008 
331 1 0.399361 7.1401 -4.41622 0.00236167 0.00257838 0.00382763 111 16 
66 2 2.7444 10.8264 -12.4915 0.00643089 -0.00244533 0.0170274 22 1.008 
434 2 10.3359 4.3242 -7.21096 0.00422836 -0.000837186 -0.00568945 145 1.008 
561 2 12.3288 8.37357 -4.78773 -0.00297585 -0.000703297 0.00284382 187 1.008 
130 1 12.6469 6.49348 -7.17354 0.00031322 -0.00174511 0.00437261 44 16 
131 2 11.7636 6.04463 -7.30949 0.00681024 -0.0125136 -0.00120194 44 1.008 
349 1 5.67362 8.02326 -7.02189 0.00142695 -0.00133915 -0.00299902 117 16 
350 2 5.4348 7.64225 -6.12854 -0.000722531 -0.0133206 -0.00886007 117 1.008 
351 2 6.50513 8.57272 -6.93846 0.00508472 -0.0083669 0.00500406 117 1.008 
402 2 4.38514 6.9876 -4.32236 -0.00509703 0.0135242 0.00536213 134 1.008 
433 1 10.2286 5.28014 -7.48475 0.00052344 0.00114407 0.00323175 145 16 
435 2 9.60742 5.33529 -8.26663 0.0132585 0.00444543 -0.0064637 145 1.008 
528 2 4.2366 8.29203 -8.05717 -0.00685872 -0.0100827 0.010065 176 1.008 
583 1 10.1541 6.3172 -4.85229 0.00144313 0.000235898 -0.00333123 195 16 
584 2 10.284 5.88534 -5.74498 -0.00398218 -0.0175321 0.00463655 195 1.008 
585 2 11.0406 6.42505 -4.40198 -0.000361781 -0.0292497 0.00699794 195 1.008 
259 1 -5.04069 -7.48492 3.38767 -0.000874765 0.00191605 -0.00234351 87 16 
260 2 -4.64174 -6.58646 3.20357 0.00476855 0.000187501 0.00228176 87 1.008 
261 2 -4.4961 -8.19072 2.93428 -0.0082212 0.00131486 -0.00986639 87 1.008 
340 1 -4.62919 -9.62747 1.67227 0.00642748 -0.00274023 0.00281484 114 16 
341 2 -5.62832 -9.58479 1.68646 0.00603592 -0.0130479 -0.00462388 114 1.008 
342 2 -4.31939 -10.38 2.25361 0.00977376 -0.000162515 0.00410712 114 1.008 
362 2 -4.58716 -4.38292 3.14377 0.00122678 -0.00535938 0.00213516 121 1.008 
415 1 -7.343 -8.98775 2.51252 0.00368461 -0.00101215 0.000870166 139 16 
416 2 -6.73864 -8.22785 2.75246 0.00215867 0.00200838 -0.00551347 139 1.008 
417 2 -8.15449 -8.96557 3.0967 -0.00627648 0.0148629 -0.0138691 139 1.008 
487 1 -7.24043 -6.18493 -3.13645 0.00106953 0.00166208 -0.00142905 163 16 
488 2 -6.44286 -6.6123 -2.71041 -0.00366213 -0.00479549 0.000592846 163 1.008 
489 2 -7.71407 -5.61725 -2.46289 -0.000672946 -0.0011039 -0.000552056 163 1.008 
572 2 -3.40422 -6.65291 -4.16878 -0.0219539 -0.00372473 -0.00269507 191 1.008 
133 1 3.67223 -5.14767 -3.74898 -0.0023987 -0.00118887 -0.00138477 45 16 
361 1 -3.89815 -5.07352 2.92332 0.00174739 -0.00389198 -0.000135608 121 16 
363 2 -2.98685 -4.70753 3.11266 0.00139355 -0.00296665 -0.00103589 121 1.008 
3 2 0.239644 -8.36643 3.92212 0.00669882 -0.00122931 -0.00511835 1 1.008 
50 2 2.78614 -5.27437 3.92578 -0.0013998 0.00570072 -0.000569992 17 1.008 
135 2 3.02992 -5.67446 -3.19202 0.00358102 -0.00802053 -0.00122829 45 1.008 
148 1 -1.27235 -8.8516 -2.45097 0.00130892 -0.00550599 -0.0005431 50 16 
149 2 -1.24416 -9.77789 -2.82708 0.00906591 -0.00484962 -0.00117156 50 1.008 
150 2 -1.38301 -8.89819 -1.45806 -0.0103145 -0.00699065 -0.00208043 50 1.008 
177 2 -2.23729 -5.42963 -2.84247 -0.00204352 0.0013903 0.000573923 59 1.008 
217 1 2.40534 -6.32654 2.19656 -0.00116608 -0.0032169 -0.00382449 73 16 
218 2 1.8243 -6.77912 2.8732 -0.0126828 -0.00583738 -0.0157313 73 1.008 
219 2 1.87491 -5.62854 1.71519 0.0072267 -0.00131898 -0.00999358 73 1.008 
232 1 0.867637 -4.2656 0.87915 -0.00194915 0.00724681 -0.00472218 78 16 
346 1 -0.749986 -6.56206 1.41746 0.00318991 -0.000340843 0.00231182 116 16 
347 2 -0.415062 -6.91331 2.29194 0.00283344 0.00709827 0.00525718 116 1.008 
348 2 -0.289893 -5.69946 1.20646 -0.00351883 0.00240965 -0.000337275 116 1.008 
358 1 -3.53203 -5.6415 0.24651 0.00268415 -0.00130136 0.000120168 120 16 
359 2 -3.80601 -5.58564 1.20676 -0.00309887 0.00187896 -0.00187283 120 1.008 
360 2 -2.78002 -5.00435 0.0768083 -0.00697603 0.00955092 -0.0010867 120 1.008 
376 1 0.42078 -6.59936 -2.98381 0.00291911 -0.00263973 -0.00169708 126 16 
377 2 -0.147436 -5.77918 -3.0524 -0.00190418 -0.00673642 -0.0083844 126 1.008 
378 2 -0.157074 -7.38883 -2.77621 0.00616534 -0.00644866 -0.00792969 126 1.008 
490 1 -2.2111 -8.56549 0.0382812 0.00247202 1.20977e-05 -0.00241723 164 16 
491 2 -3.03961 -8.87451 0.505568 0.00122033 0.00581105 -0.00113533 164 1.008 
492 2 -1.74683 -7.88101 0.60061 -0.00539437 0.0153034 -0.0148455 164 1.008 
547 1 2.69436 -6.68406 -1.39268 -0.00299308 0.00211917 0.00147787 183 16 
548 2 1.85495 -6.61363 -1.93184 -0.010574 0.000221942 0.0133226 183 1.008 
549 2 2.47883 -7.04769 -0.486255 0.0111581 -0.00224983 0.0029104 183 1.008 
631 1 -3.2974 -6.74792 -2.31812 -0.000597514 -0.00299798 -0.00124381 211 16 
632 2 -2.78653 -7.59781 -2.44841 -0.00151748 -0.00341019 -0.000980281 211 1.008 
633 2 -3.50457 -6.62905 -1.34692 0.00721655 0.00191214 -0.000344255 211 1.008 
648 2 4.11939 -7.67047 -2.28787 -0.00143832 -8.14839e-05 0.00282718 216 1.008 
590 2 2.8662 -4.91853 -0.968868 0.00861 -0.00707808 0.00729993 197 1.008 
1 1 0.518526 -7.41157 3.81848 -0.0053099 0.00270848 0.00014531 1 16 
9 2 4.19649 -6.39386 2.48237 -0.00162939 0.000146894 -0.00625418 3 1.008 
175 1 -1.6028 -4.66861 -2.9786 0.00183834 -0.00196934 0.00101653 59 16 
604 1 7.43285 -8.58749 -2.04495 5.49243e-05 -0.00117986 0.00168355 202 16 
606 2 8.03084 -8.24453 -2.76955 -0.00522763 -0.00773188 -0.00554634 202 1.008 
646 1 4.81675 -7.93723 -2.95331 -0.00244718 -0.00204446 0.0027905 216 16 
647 2 4.45939 -7.81211 -3.879 -0.00632984 -0.0120101 0.00310344 216 1.008 
7 1 5.1661 -6.441 2.723 -0.00247672 -0.00128642 -0.00376576 3 16 
8 2 5.72046 -6.28849 1.90465 -0.000204571 -0.00202523 -0.00217398 3 1.008 
70 1 9.58457 -5.87066 0.928101 -0.00392917 0.00273973 0.00507994 24 16 
71 2 10.4857 -5.76793 1.34962 0.0022062 -0.0139628 -0.0043194 24 1.008 
72 2 9.52426 -5.28117 0.122407 0.00283386 -0.00508166 -0.000956808 24 1.008 
298 1 6.39779 -4.82612 -2.95032 4.67808e-06 0.00141298 0.00311919 100 16 
299 2 5.51909 -5.11929 -3.32742 -0.00502912 0.0106587 0.00807382 100 1.008 
300 2 6.25581 -4.4309 -2.04262 0.0101866 -0.00418628 0.0069739 100 1.008 
409 1 8.56862 -8.54579 0.568718 -0.000464457 0.000985714 0.000165979 137 16 
410 2 8.18245 -8.71715 -0.337807 0.00873953 -0.00392255 -0.00264985 137 1.008 
411 2 8.89913 -7.6031 0.617512 -0.000717673 0.00100898 -0.00172765 137 1.008 
499 1 9.14029 -4.41993 -1.29725 0.000767694 -0.00200999 0.00359937 167 16 
501 2 8.7282 -4.66456 -2.1751 0.0100537 0.0129484 -0.0047568 167 1.008 
511 1 6.81786 -6.1834 0.679571 0.00298622 0.00241437 -0.000986438 171 16 
512 2 6.75154 -6.89246 -0.0226478 -0.00930755 -0.000207869 0.00303777 171 1.008 
513 2 7.74138 -6.17978 1.06348 0.00116814 -0.0155613 0.00320303 171 1.008 
568 1 7.84264 -9.41293 3.27628 0.000452562 -0.000397585 0.000462228 190 16 
569 2 8.00033 -9.13677 2.32804 0.00198938 -0.00518855 -0.0005163 190 1.008 
570 2 7.59999 -10.3828 3.30509 0.0151988 -0.00375911 0.00630746 190 1.008 
605 2 6.47771 -8.46494 -2.31508 -0.00173857 -0.0020438 0.00820448 202 1.008 
68 2 6.17972 -4.76361 0.192109 -0.0131334 0.00181951 0.00676889 23 1.008 
83 2 -8.02462 2.01707 -3.89079 0.0044382 -0.0157953 0.00697941 28 1.008 
26 2 -7.99086 3.99194 0.323 -0.00771872 0.00204557 0.002381 9 1.008 
55 1 -7.90741 2.15052 0.116251 -0.00326864 0.000830475 0.000377605 19 16 
56 2 -8.23551 1.46078 0.76192 0.00645463 0.00342082 0.00783678 19 1.008 
57 2 -6.94353 1.98182 -0.090535 -0.00537418 0.00255543 -0.0101527 19 1.008 
91 1 -5.1026 2.34018 0.0413086 -0.000361916 -0.00200148 -0.000678773 31 16 
93 2 -5.21878 3.23905 -0.381552 0.0159372 -0.0129865 -0.02811 31 1.008 
174 2 -4.42704 -2.55311 0.613464 -0.00350662 0.0107207 -0.00219491 58 1.008 
247 1 -9.09286 2.25619 -2.45508 -0.00220087 0.00395459 -0.00335816 83 16 
248 2 -8.68634 2.19136 -1.54359 0.0107877 0.0054832 -0.00920679 83 1.008 
249 2 -9.91523 2.82389 -2.41371 -0.00508673 -0.00137756 0.00869355 83 1.008 
269 2 -7.14104 1.91135 3.72915 -0.00337498 0.00740056 0.00371971 90 1.008 
373 1 -5.71444 2.15468 2.81564 -0.00113832 0.00263187 0.000911267 125 16 
374 2 -5.52671 2.35103 1.8531 0.0250209 -0.0114829 0.00332001 125 1.008 
544 1 -5.54917 -3.06793 3.68332 -0.00186448 0.00476706 -0.000529364 182 16 
546 2 -4.85873 -2.3527 3.79297 -0.00876945 0.0129447 -0.0118798 182 1.008 
375 2 -5.34716 2.8912 3.3839 0.010466 -0.00445103 0.00228446 125 1.008 
234 2 1.62501 -3.87207 0.357796 0.0130773 -0.00360111 0.00924147 78 1.008 
134 2 3.43998 -4.17628 -3.69667 -0.012474 -0.00378799 -0.000881246 45 1.008 
176 2 -1.91039 -4.11215 -3.75063 0.00818069 -0.00354049 -0.00245198 59 1.008 
210 2 -0.632645 -3.58826 3.44862 0.00337352 -0.00524855 4.84318e-05 70 1.008 
233 2 0.666425 -3.68254 1.66644 -0.00285999 0.00582133 -0.00409482 78 1.008 
449 2 1.51061 -3.30658 4.03449 0.00864739 -0.000475938 -0.000141457 150 1.008 
553 1 -1.53971 -3.87918 -0.370148 0.00141269 0.000966086 -0.00152899 185 16 
554 2 -1.48637 -4.04773 -1.35454 -0.00630563 -0.00404587 -0.00092812 185 1.008 
555 2 -0.651076 -4.06655 0.048779 0.0043975 0.00258048 -0.00751186 185 1.008 
92 2 -4.12909 2.16416 0.188128 -0.00432616 -0.0108307 0.0140158 31 1.008 
172 1 -3.49259 -2.2456 0.793756 0.000107796 -0.00223386 0.000323649 58 16 
533 2 -3.36727 -0.801087 3.19994 0.0108696 -0.00288051 -0.00180795 178 1.008 
79 1 2.97103 -2.34947 -2.9084 -0.00123751 0.00182996 0.00378976 27 16 
80 2 3.03653 -2.89121 -2.07025 0.00388293 -0.0359267 -0.0211827 27 1.008 
81 2 2.0128 -2.12461 -3.08596 -0.00482759 -0.0131169 0.00516772 27 1.008 
103 1 1.53262 2.70752 2.34222 -0.00700503 -0.0017995 0.00205606 35 16 
104 2 1.58456 2.14606 1.51618 0.00317854 -0.00316405 0.00382387 35 1.008 
105 2 0.924832 2.26992 3.00507 -0.0032288 -0.00811336 0.00111409 35 1.008 
106 1 3.86979 0.00550454 -1.81651 0.000690979 -0.000443146 -0.00391206 36 16 
107 2 3.59518 -0.713022 -2.45571 -0.00247455 -0.0010461 -0.00162967 36 1.008 
108 2 3.46676 0.875811 -2.10007 0.0177202 0.00344843 -0.0156207 36 1.008 
139 1 0.266982 -2.12613 -3.48326 -0.0022981 0.000777413 -0.00102885 47 16 
140 2 -0.352046 -2.89699 -3.33207 -0.00191533 -0.00154475 -0.0123178 47 1.008 
141 2 0.0954842 -1.42093 -2.79512 0.0033111 -0.0131125 0.0144037 47 1.008 
173 2 -2.84535 -2.92298 0.443722 -0.00832922 -0.00918493 -0.00139044 58 1.008 
223 1 0.880262 -0.437621 2.31344 0.000718545 -0.000757862 -0.00111993 75 16 
224 2 -0.046826 -0.480671 1.94071 0.00410692 -0.00243566 -0.00891647 75 1.008 
225 2 1.49724 -0.0496674 1.62853 0.00435148 0.00707915 0.00682198 75 1.008 
241 1 2.27736 0.978176 0.105396 0.00617954 0.000722961 0.00190412 81 16 
242 2 2.96772 0.319567 -0.194456 0.00312878 -0.00511412 0.0082081 81 1.008 
243 2 2.23058 1.73322 -0.548823 0.00917046 -0.00568153 -0.00546721 81 1.008 
313 1 -0.659279 2.50228 -2.55046 -0.00350503 2.7483e-06 0.00250193 105 16 
314 2 -0.682154 3.4841 -2.73961 -0.0226697 -0.00119361 -0.00056783 105 1.008 
315 2 -1.22464 2.0205 -3.22019 0.0212591 -0.0149378 -0.00742315 105 1.008 
424 1 -1.31665 -0.54856 0.806934 0.00207219 -0.000121301 -0.00213057 142 16 
425 2 -1.20063 -0.314996 -0.158604 -0.00228347 -0.0100985 -0.00491257 142 1.008 
426 2 -2.18258 -1.03341 0.9309 -0.00504827 0.0158259 0.00932741 142 1.008 
448 1 1.02462 -2.97007 3.22773 0.00178579 0.00197127 0.00521701 150 16 
450 2 1.14134 -1.97926 3.15743 0.0110525 0.000393653 0.000626697 150 1.008 
451 1 2.04023 2.31473 -2.38305 0.00280238 0.0073637 -0.00238299 151 16 
453 2 1.05376 2.47122 -2.33156 -0.00159208 -0.020044 -0.00612236 151 1.008 
466 1 -0.0160201 -0.0603934 -1.65147 0.00130628 -0.000859256 -0.00329936 156 16 
467 2 -0.327319 0.823973 -1.99971 0.00391417 0.00517158 0.0101416 156 1.008 
468 2 0.816008 0.0680807 -1.11156 0.00571093 -0.0124295 -0.00760859 156 1.008 
532 1 -3.33466 -1.30623 4.06252 0.00478277 0.00137663 0.000741177 178 16 
534 2 -2.7524 -2.11226 3.95501 -0.00801011 -0.00811824 0.00394497 178 1.008 
622 1 -2.25439 2.36443 0.279448 0.000785732 -0.00269338 -0.00163616 208 16 
623 2 -1.58123 2.84855 -0.279796 0.00645985 0.000710965 0.00842902 208 1.008 
624 2 -1.9921 2.42382 1.24275 0.000434354 -0.0240527 -0.000379932 208 1.008 
589 1 3.18837 -3.99752 -0.749238 0.00223596 -0.00309174 -0.000823821 197 16 
591 2 4.18752 -3.99561 -0.704844 0.00277226 0.00763249 -0.0164534 197 1.008 
239 2 2.45259 3.52628 3.60868 0.0290098 -0.00763977 -0.0146071 80 1.008 
452 2 2.31681 2.2431 -3.34151 0.00552182 -0.00297233 -0.000671142 151 1.008 
539 2 -0.903884 3.94691 2.16877 0.0079114 0.00637471 0.0145303 180 1.008 
208 1 -1.57132 -3.74724 3.75505 0.00274472 0.0020079 0.00138883 70 16 
160 1 -2.03639 2.75969 2.95035 -0.00156783 0.000869444 -0.0019137 54 16 
161 2 -2.82756 3.09059 3.46498 0.00302611 0.0133759 -0.00318082 54 1.008 
162 2 -1.44605 2.22411 3.55444 -3.7244e-05 0.0097271 0.00420672 54 1.008 
250 1 -0.0784879 1.12283 4.19138 0.00104948 0.00175841 0.000273967 84 16 
252 2 0.317826 0.406902 3.61635 0.00338948 -0.00115995 0.00578247 84 1.008 
228 2 8.6115 1.71183 -4.19085 0.00882326 0.00114583 -0.000715541 76 1.008 
67 1 5.9198 -3.93944 -0.311347 0.00147177 0.00223921 0.000198242 23 16 
69 2 6.48347 -3.17132 -0.00715023 0.0113694 -0.0042415 -0.0022964 23 1.008 
124 1 8.22834 -2.16894 0.130361 0.00100189 0.000684063 0.00297743 42 16 
125 2 7.90177 -1.41885 -0.444962 0.0215697 0.00513693 -0.00268083 42 1.008 
126 2 8.51742 -1.80753 1.01698 -0.00278822 -0.00243798 0.0053143 42 1.008 
127 1 7.67227 1.87142 3.3679 0.00090624 -0.00134572 0.00138747 43 16 
128 2 7.49709 0.901704 3.19688 0.000843951 -0.00229768 0.00775587 43 1.008 
286 1 6.51826 -0.526359 -1.14011 -0.00120459 0.000790961 -0.0020657 96 16 
287 2 5.53426 -0.389266 -1.25514 7.77717e-05 0.00976409 -0.00100507 96 1.008 
288 2 6.93818 0.323421 -0.821015 0.00837589 -0.000317474 -0.0122278 96 1.008 
316 1 7.70534 1.78904 -0.422222 0.00026579 -0.000881192 0.00144704 106 16 
317 2 7.87542 2.26051 -1.28771 0.0279165 -0.00503483 0.00476663 106 1.008 
318 2 7.61765 2.46206 0.312381 0.0183189 0.000309611 0.00229687 106 1.008 
439 1 7.52021 2.91309 -2.88026 -0.000896387 0.000451502 0.00632766 147 16 
440 2 7.73665 3.85884 -3.12316 -0.0056369 0.00202114 0.008854 147 1.008 
441 2 6.6713 2.63874 -3.33231 -0.00272824 -0.000492915 0.0106876 147 1.008 
500 2 8.67 -3.62246 -0.918917 0.00837999 0.00220104 0.00375727 167 1.008 
644 2 6.31622 2.88561 3.74344 0.0123006 -0.00694003 0.016104 215 1.008 
129 2 8.34709 1.96418 4.10022 0.00772852 0.0032381 -0.00569106 43 1.008 
330 2 -11.268 6.34892 -3.79538 -0.000424981 0.00643542 0.015962 110 1.008 
25 1 -7.7576 4.96213 0.255152 -0.00295851 0.000857772 0.00401193 9 16 
27 2 -6.9086 5.0654 -0.263316 0.00226 -0.0031055 0.0120838 9 1.008 
142 1 -5.39422 4.78009 -1.22016 -0.00261319 0.00235552 0.000977756 48 16 
143 2 -4.40864 4.95013 -1.22282 -0.00403198 0.00966363 0.00207163 48 1.008 
144 2 -5.82281 5.29191 -1.96489 -0.00456158 -0.00656398 -0.00382675 48 1.008 
258 2 -8.2417 5.04373 4.06528 -0.00250333 -0.00251787 0.00118115 86 1.008 
328 1 -10.5466 5.77367 -3.40932 -0.00108476 -0.00252879 0.00342498 110 16 
329 2 -9.88891 5.53847 -4.12511 -0.0197353 -0.0156685 -0.00916991 110 1.008 
352 1 -9.92882 7.96812 1.63751 -0.00104454 0.00242534 -0.00145965 118 16 
353 2 -10.0335 7.73491 0.670588 -0.00392241 -0.00487769 0.000778814 118 1.008 
354 2 -10.3797 8.84196 1.82036 -0.00424482 0.00150785 -0.00583495 118 1.008 
397 1 -5.01171 6.44835 -3.40879 -0.00249947 -0.00838102 -0.00605417 133 16 
399 2 -4.92776 7.36357 -3.80326 -0.00124945 -0.0085016 -0.0056783 133 1.008 
535 1 -9.72288 6.60464 -0.814477 0.00114662 0.000832299 0.00152796 179 16 
536 2 -9.99588 6.26618 -1.71514 -0.000698462 0.00719962 -0.000134342 179 1.008 
537 2 -9.05463 5.97894 -0.411714 0.0054134 0.0005832 -0.0063236 179 1.008 
592 1 -5.38181 6.44494 4.18521 -0.000106904 0.00190968 0.0041398 198 16 
594 2 -6.01039 6.83429 3.51172 0.0003406 0.0234249 0.0163318 198 1.008 
634 1 -7.90038 6.29899 2.64997 -0.000784923 0.00648738 0.00169815 212 16 
635 2 -8.59903 7.00972 2.56612 -0.0057111 0.001773 0.00462036 212 1.008 
636 2 -7.80785 5.81797 1.778 -0.0243922 -0.014455 0.0109285 212 1.008 
398 2 -4.24704 6.28241 -2.78588 0.00195637 -0.0129927 -0.0130007 133 1.008 
332 2 0.26808 8.07136 -4.07594 -0.00818285 0.00385892 -0.0041947 111 1.008 
540 2 0.602345 4.38687 1.71592 0.000231393 0.0247232 0.00764375 180 1.008 
58 1 3.53884 8.00524 0.347212 -0.00088453 -0.000549124 -0.00520043 20 16 
59 2 2.69509 7.98164 -0.189261 -0.0100379 0.0155301 0.00880137 20 1.008 
60 2 3.61341 8.88735 0.812612 0.0203922 -0.00454545 -0.00136472 20 1.008 
154 1 1.02146 8.99648 1.85793 0.00249956 -0.000189067 -0.000968037 52 16 
155 2 1.08025 8.7642 0.886917 -0.00278464 0.0206271 -0.00612101 52 1.008 
156 2 1.89094 9.38734 2.16043 0.00543327 -0.010694 0.00366623 52 1.008 
169 1 -1.03901 5.03687 -3.56139 0.00568869 0.00192774 -0.00269826 57 16 
171 2 -0.413283 5.7119 -3.95264 0.00515894 0.00746267 0.00642442 57 1.008 
199 1 -1.44371 6.80102 0.402597 0.00314163 0.00058325 0.00268611 67 16 
200 2 -0.993181 5.95641 0.692299 -0.00670938 -0.00267241 0.0079332 67 1.008 
201 2 -1.5884 7.39109 1.19706 0.00672139 0.00559705 -0.000577736 67 1.008 
307 1 0.936462 7.67365 -0.706649 0.000248862 -0.00290708 0.0029186 103 16 
308 2 1.21758 6.87149 -1.23371 -0.0143631 0.00482881 -0.0163263 103 1.008 
309 2 0.0189863 7.52505 -0.337278 -0.00213378 0.0047133 -0.00035616 103 1.008 
418 1 -2.91502 5.80552 -1.6194 0.000225507 0.00210321 0.00209044 140 16 
419 2 -2.21295 5.42672 -2.22263 0.00207025 -0.0165044 0.0161527 140 1.008 
420 2 -2.47766 6.26357 -0.845324 -0.00318045 -0.0147628 0.0137882 140 1.008 
462 2 3.74861 5.31645 2.45784 -0.00372599 0.00167389 -0.0015044 154 1.008 
523 1 3.53785 10.3399 2.15611 -0.0014983 0.00241427 -0.00431114 175 16 
538 1 -0.37399 4.53398 1.55653 -0.00209123 -0.00197046 -0.00190177 180 16 
556 1 -1.5606 8.28318 2.63537 0.00213895 0.00287646 0.00130345 186 16 
557 2 -0.593387 8.47257 2.8054 -0.00173064 0.0114918 0.0129514 186 1.008 
558 2 -2.07144 9.14293 2.62279 -0.00671869 -0.0025177 0.00404322 186 1.008 