variable        infile index mol.data
variable        mytemp index 300

# set up simulation
# the following information is saved to restart files
units           real
atom_style      full
boundary        p p p
pair_style      lj/cut/coul/long 12
kspace_style    ewald 0.0001
pair_modify     tail yes
pair_modify     mix arithmetic
special_bonds   amber

bond_style      harmonic
angle_style     harmonic
#dihedral_style  charmm
#improper_style  cvff

read_data       ${infile}
read_data       mol.data
  orthogonal box = (-12.6713 -12.6824 -12.6758) to (12.6713 12.6824 12.6758)
  1 by 1 by 1 MPI processor grid
  reading atoms ...
  648 atoms
  reading velocities ...
  648 velocities
  scanning bonds ...
  1 = max bonds/atom
  scanning angles ...
  1 = max angles/atom
  reading bonds ...
  432 bonds
  reading angles ...
  216 angles
  2 = max # of 1-2 neighbors
  1 = max # of 1-3 neighbors
  1 = max # of 1-4 neighbors
  2 = max # of special neighbors

neighbor        2.0 bin
neigh_modify    delay 0 every 1 check yes page 1000000 one 20000
timestep        1.0

## end information that is saved to restart files

## create velocity profile
#velocity        all create  ${mytemp} 314159265 units box
velocity        all zero linear units box
dump            DUMP all custom 2 ${NAME}.lammpstrj id type x y z vx vy vz mol mass
dump            DUMP all custom 2 mol.lammpstrj id type x y z vx vy vz mol mass
thermo_style    custom step vol temp press ke pe etotal enthalpy evdwl ecoul epair ebond eangle edihed eimp emol elong etail lx ly lz xy xz yz density
thermo          1
#
## thermostat and integrator
#minimize       1e-4 1e-6 10000 10000

fix             shake all shake 0.0001 20 0 b 1 a 1
  0 = # of size 2 clusters
  0 = # of size 3 clusters
  0 = # of size 4 clusters
  216 = # of frozen angles
#fix             NPT all npt temp ${mytemp} ${mytemp} 100.0 iso 1.0 1.0 100.0
fix             NVT all nvt temp ${mytemp} ${mytemp} 100.0
fix             NVT all nvt temp 300 ${mytemp} 100.0
fix             NVT all nvt temp 300 300 100.0

restart         50000 restart.${NAME}.1 restart.${NAME}.2
restart         50000 restart.mol.1 restart.${NAME}.2
restart         50000 restart.mol.1 restart.mol.2
run             100
Ewald initialization ...
  G vector (1/distance) = 0.203418
  estimated absolute RMS force accuracy = 0.0332238
  estimated relative force accuracy = 0.000100053
  KSpace vectors: actual max1d max3d = 257 5 665
                  kxmax kymax kzmax  = 5 5 5
Memory usage per processor = 8.19618 Mbytes
Step Volume Temp Press KinEng PotEng TotEng Enthalpy E_vdwl E_coul E_pair E_bond E_angle E_dihed E_impro E_mol E_long E_tail Lx Ly Lz Xy Xz Yz Density 
       0    16296.254     163.0784   -511.65783    209.51157   -2077.7536    -1868.242   -1989.8447    442.49912    5771.5979   -2077.7536            0            0            0            0            0   -8291.8506   -2.1699155    25.342563    25.364776     25.35165            0            0            0   0.39652754 
       1    16296.254    162.91882   -378.16836    209.30656   -2076.4525   -1867.1459    -1957.023    440.62746    5774.6919   -2076.4525            0            0            0            0            0   -8291.7719   -2.1699155    25.342563    25.364776     25.35165            0            0            0   0.39652754 
       2    16296.254    162.44766   -594.37072    208.70124   -2075.8403    -1867.139   -2008.3997    438.77605    5777.0377   -2075.8403            0            0            0            0            0   -8291.6541   -2.1699155    25.342563    25.364776     25.35165            0            0            0   0.39652754 
       3    16296.254    161.71059   -615.53309    207.75431   -2074.9978   -1867.2435   -2013.5337    436.94582    5779.5623   -2074.9978            0            0            0            0            0   -8291.5059   -2.1699155    25.342563    25.364776     25.35165            0            0            0   0.39652754 
       4    16296.254    160.75121   -630.84946    206.52176   -2073.6605   -1867.1387    -2017.069    435.13565    5782.5378   -2073.6605            0            0            0            0            0   -8291.3339   -2.1699155    25.342563    25.364776     25.35165            0            0            0   0.39652754 
       5    16296.254    159.63428   -645.82952    205.08681   -2072.1734   -1867.0866   -2020.5771    433.34613    5785.6269   -2072.1734            0            0            0            0            0   -8291.1464   -2.1699155    25.342563    25.364776     25.35165            0            0            0   0.39652754 
       6    16296.254    158.43792   -659.94427    203.54981   -2070.5732   -1867.0234   -2023.8685    431.57626    5788.8035   -2070.5732            0            0            0            0            0   -8290.9529   -2.1699155    25.342563    25.364776     25.35165            0            0            0   0.39652754 
       7    16296.254    157.24838   -672.05522    202.02157   -2068.8886    -1866.867   -2026.5904    429.82468     5792.051   -2068.8886            0            0            0            0            0   -8290.7642   -2.1699155    25.342563    25.364776     25.35165            0            0            0   0.39652754 
       8    16296.254    156.15304   -685.68214    200.61435   -2067.3655   -1866.7511   -2029.7132    428.08972    5795.1359   -2067.3655            0            0            0            0            0   -8290.5911   -2.1699155    25.342563    25.364776     25.35165            0            0            0   0.39652754 
       9    16296.254    155.23189   -697.60712    199.43093   -2065.9013   -1866.4704   -2032.2666    426.36861    5798.1741   -2065.9013            0            0            0            0            0    -8290.444   -2.1699155    25.342563    25.364776     25.35165            0            0            0   0.39652754 
      10    16296.254     154.5501   -713.31138    198.55502   -2064.8443   -1866.2893   -2035.8179    424.65923    5800.8285   -2064.8443            0            0            0            0            0    -8290.332   -2.1699155    25.342563    25.364776     25.35165            0            0            0   0.39652754 
      11    16296.254    154.15266   -731.59126    198.04441    -2064.163   -1866.1185   -2039.9916    422.95981    5803.1397    -2064.163            0            0            0            0            0   -8290.2624   -2.1699155    25.342563    25.364776     25.35165            0            0            0   0.39652754 
      12    16296.254    154.05945   -752.68897    197.92466   -2063.8721   -1865.9475   -2044.8346    421.26614    5805.1013   -2063.8721            0            0            0            0            0   -8290.2396   -2.1699155    25.342563    25.364776     25.35165            0            0            0   0.39652754 
      13    16296.254    154.26248   -776.13945     198.1855   -2063.9474   -1865.7619   -2050.2224    419.57737    5806.7399   -2063.9474            0            0            0            0            0   -8290.2647   -2.1699155    25.342563    25.364776     25.35165            0            0            0   0.39652754 
      14    16296.254    154.72586   -802.14477    198.78083   -2064.3661   -1865.5853   -2056.2263    417.89493    5808.0743   -2064.3661            0            0            0            0            0   -8290.3353   -2.1699155    25.342563    25.364776     25.35165            0            0            0   0.39652754 
      15    16296.254    155.38698   -827.42239    199.63018    -2064.894   -1865.2639   -2061.9125    416.21726    5809.3343    -2064.894            0            0            0            0            0   -8290.4456   -2.1699155    25.342563    25.364776     25.35165            0            0            0   0.39652754 
      16    16296.254    156.16098   -854.66068    200.62457   -2065.5943   -1864.9697   -2068.0919     414.5479    5810.4446   -2065.5943            0            0            0            0            0   -8290.5867   -2.1699155    25.342563    25.364776     25.35165            0            0            0   0.39652754 
      17    16296.254    156.94812   -881.39726    201.63583   -2066.2506   -1864.6148   -2074.0913    412.89011     5811.607   -2066.2506            0            0            0            0            0   -8290.7477   -2.1699155    25.342563    25.364776     25.35165            0            0            0   0.39652754 
      18    16296.254    157.64343     -909.273    202.52911   -2066.8561    -1864.327   -2080.4286    411.24628     5812.814   -2066.8561            0            0            0            0            0   -8290.9164   -2.1699155    25.342563    25.364776     25.35165            0            0            0   0.39652754 
      19    16296.254     158.1491    -935.1854    203.17876    -2067.164   -1863.9853   -2086.2453    409.62336    5814.2932    -2067.164            0            0            0            0            0   -8291.0805   -2.1699155    25.342563    25.364776     25.35165            0            0            0   0.39652754 
      20    16296.254    158.38422   -959.54192    203.48082   -2067.1272   -1863.6464   -2091.6951    408.02273    5816.0791   -2067.1272            0            0            0            0            0    -8291.229   -2.1699155    25.342563    25.364776     25.35165            0            0            0   0.39652754 
      21    16296.254    158.29411    -979.7699    203.36505   -2066.5666   -1863.2015   -2096.0577    406.45004    5818.3363   -2066.5666            0            0            0            0            0    -8291.353   -2.1699155    25.342563    25.364776     25.35165            0            0            0   0.39652754 
      22    16296.254    157.85854   -999.22089    202.80546   -2065.6474    -1862.842   -2100.3209    404.90799    5820.8906   -2065.6474            0            0            0            0            0    -8291.446   -2.1699155    25.342563    25.364776     25.35165            0            0            0   0.39652754 
      23    16296.254    157.09085   -1016.1176     201.8192    -2064.287   -1862.4678   -2103.9626    403.39938    5823.8184    -2064.287            0            0            0            0            0   -8291.5048   -2.1699155    25.342563    25.364776     25.35165            0            0            0   0.39652754 
      24    16296.254    156.03516   -1028.4174    200.46291   -2062.4282   -1861.9653   -2106.3832    401.92496    5827.1761   -2062.4282            0            0            0            0            0   -8291.5292   -2.1699155    25.342563    25.364776     25.35165            0            0            0   0.39652754 
      25    16296.254    154.76179   -1041.9394    198.82698   -2060.4385   -1861.6115   -2109.2431    400.48567    5830.5972   -2060.4385            0            0            0            0            0   -8291.5213   -2.1699155    25.342563    25.364776     25.35165            0            0            0   0.39652754 
      26    16296.254    153.35914   -1052.1748    197.02495   -2058.1726   -1861.1476   -2111.2119    399.07769    5834.2354   -2058.1726            0            0            0            0            0   -8291.4857   -2.1699155    25.342563    25.364776     25.35165            0            0            0   0.39652754 
      27    16296.254    151.92493   -1062.6772    195.18238   -2055.8949   -1860.7126   -2113.2728    397.70084    5837.8325   -2055.8949            0            0            0            0            0   -8291.4283   -2.1699155    25.342563    25.364776     25.35165            0            0            0   0.39652754 
      28    16296.254    150.55908   -1071.4395    193.42763    -2053.604   -1860.1764   -2114.8191    396.34947    5841.4023    -2053.604            0            0            0            0            0   -8291.3558   -2.1699155    25.342563    25.364776     25.35165            0            0            0   0.39652754 
      29    16296.254    149.35716   -1084.0909     191.8835   -2051.6707   -1859.7873   -2117.4368    395.01846    5844.5861   -2051.6707            0            0            0            0            0   -8291.2753   -2.1699155    25.342563    25.364776     25.35165            0            0            0   0.39652754 
      30    16296.254    148.40415   -1095.6194    190.65913   -2049.9157   -1859.2566   -2119.6461     393.7008    5847.5771   -2049.9157            0            0            0            0            0   -8291.1937   -2.1699155    25.342563    25.364776     25.35165            0            0            0   0.39652754 
      31    16296.254    147.76936   -1108.2496     189.8436   -2048.5262   -1858.6826   -2122.0738    392.39085    5850.1998   -2048.5262            0            0            0            0            0   -8291.1168   -2.1699155    25.342563    25.364776     25.35165            0            0            0   0.39652754 
      32    16296.254    147.50279   -1125.4167    189.50112   -2047.7049   -1858.2038    -2125.675    391.08167     5852.263   -2047.7049            0            0            0            0            0   -8291.0496   -2.1699155    25.342563    25.364776     25.35165            0            0            0   0.39652754 
      33    16296.254    147.63214   -1145.7889    189.66731   -2047.4147   -1857.7474   -2130.0603    389.76684     5853.814   -2047.4147            0            0            0            0            0   -8290.9955   -2.1699155    25.342563    25.364776     25.35165            0            0            0   0.39652754 
      34    16296.254    148.15967   -1169.9575    190.34504   -2047.6839   -1857.3388   -2135.3958    388.43892    5854.8338   -2047.6839            0            0            0            0            0   -8290.9566   -2.1699155    25.342563    25.364776     25.35165            0            0            0   0.39652754 
      35    16296.254    149.06223   -1193.7155    191.50459   -2048.2721   -1856.7675   -2140.4709    387.09491    5855.5664   -2048.2721            0            0            0            0            0   -8290.9334   -2.1699155    25.342563    25.364776     25.35165            0            0            0   0.39652754 
      36    16296.254    150.29407   -1221.2444    193.08717     -2049.35   -1856.2628   -2146.5088    385.73001    5855.8451     -2049.35            0            0            0            0            0   -8290.9251   -2.1699155    25.342563    25.364776     25.35165            0            0            0   0.39652754 
      37    16296.254    151.78777   -1250.0627    195.00617   -2050.7297   -1855.7235   -2152.8186    384.34332    5855.8567   -2050.7297            0            0            0            0            0   -8290.9297   -2.1699155    25.342563    25.364776     25.35165            0            0            0   0.39652754 
      38    16296.254    153.46111   -1280.6198    197.15596   -2052.3556   -1855.1996    -2159.557      382.936    5855.6531   -2052.3556            0            0            0            0            0   -8290.9447   -2.1699155    25.342563    25.364776     25.35165            0            0            0   0.39652754 
      39    16296.254    155.22407    -1312.457    199.42088   -2054.1304   -1854.7095   -2166.6335     381.5101    5855.3264   -2054.1304            0            0            0            0            0    -8290.967   -2.1699155    25.342563    25.364776     25.35165            0            0            0   0.39652754 
      40    16296.254    156.98474   -1343.1489    201.68287    -2055.847   -1854.1642   -2173.3825    380.07061    5855.0759    -2055.847            0            0            0            0            0   -8290.9936   -2.1699155    25.342563    25.364776     25.35165            0            0            0   0.39652754 
      41    16296.254    158.65619   -1372.9117    203.83022   -2057.4356   -1853.6054   -2179.8973    378.62382    5854.9625   -2057.4356            0            0            0            0            0    -8291.022   -2.1699155    25.342563    25.364776     25.35165            0            0            0   0.39652754 
      42    16296.254    160.16296   -1402.1708    205.76603   -2058.8563   -1853.0902    -2186.336    377.17717    5855.0167   -2058.8563            0            0            0            0            0   -8291.0502   -2.1699155    25.342563    25.364776     25.35165            0            0            0   0.39652754 
      43    16296.254    161.44306   -1430.2611    207.41061   -2060.0175   -1852.6069   -2192.5287     375.7423    5855.3173   -2060.0175            0            0            0            0            0   -8291.0771   -2.1699155    25.342563    25.364776     25.35165            0            0            0   0.39652754 
      44    16296.254     162.4492   -1456.9917    208.70322    -2060.868   -1852.1648   -2198.4395    374.32974    5855.9049    -2060.868            0            0            0            0            0   -8291.1027   -2.1699155    25.342563    25.364776     25.35165            0            0            0   0.39652754 
      45    16296.254    163.15057   -1478.4341     209.6043   -2061.1929   -1851.5886   -2202.9594    372.94682    5856.9882   -2061.1929            0            0            0            0            0   -8291.1279   -2.1699155    25.342563    25.364776     25.35165            0            0            0   0.39652754 
      46    16296.254    163.53136   -1499.9094     210.0935   -2061.2472   -1851.1537   -2207.6284    371.60639    5858.3008   -2061.2472            0            0            0            0            0   -8291.1545   -2.1699155    25.342563    25.364776     25.35165            0            0            0   0.39652754 
      47    16296.254    163.58957   -1518.5501    210.16828   -2060.8932   -1850.7249   -2211.6298    370.31886    5859.9728   -2060.8932            0            0            0            0            0   -8291.1849   -2.1699155    25.342563    25.364776     25.35165            0            0            0   0.39652754 
      48    16296.254     163.3356   -1531.4674    209.84201   -2060.0072   -1850.1652   -2214.1401     369.0925    5862.1223   -2060.0072            0            0            0            0            0    -8291.222   -2.1699155    25.342563    25.364776     25.35165            0            0            0   0.39652754 
      49    16296.254    162.79468   -1544.0936    209.14706   -2058.8979   -1849.7508   -2216.7265    367.93522    5864.4359   -2058.8979            0            0            0            0            0    -8291.269   -2.1699155    25.342563    25.364776     25.35165            0            0            0   0.39652754 
      50    16296.254    162.00686   -1552.6877    208.13493   -2057.4213   -1849.2864   -2218.3046    366.85492    5867.0522   -2057.4213            0            0            0            0            0   -8291.3285   -2.1699155    25.342563    25.364776     25.35165            0            0            0   0.39652754 
      51    16296.254    161.02431   -1559.0009    206.87263   -2055.7213   -1848.8487   -2219.3673    365.85448    5869.8268   -2055.7213            0            0            0            0            0   -8291.4026   -2.1699155    25.342563    25.364776     25.35165            0            0            0   0.39652754 
      52    16296.254    159.91016   -1564.3864    205.44124   -2053.9363   -1848.4951   -2220.2937    364.93752    5872.6188   -2053.9363            0            0            0            0            0   -8291.4926   -2.1699155    25.342563    25.364776     25.35165            0            0            0   0.39652754 
      53    16296.254    158.73592    -1563.932    203.93266   -2051.8724   -1847.9398   -2219.6303    364.10559    5875.6205   -2051.8724            0            0            0            0            0   -8291.5985   -2.1699155    25.342563    25.364776     25.35165            0            0            0   0.39652754 
      54    16296.254    157.57629   -1563.0795    202.44285   -2049.8849   -1847.4421   -2218.9301    363.35546    5878.4787   -2049.8849            0            0            0            0            0   -8291.7191   -2.1699155    25.342563    25.364776     25.35165            0            0            0   0.39652754 
      55    16296.254    156.50202   -1564.0996    201.06271   -2048.1421   -1847.0794   -2218.8098    362.68904    5881.0206   -2048.1421            0            0            0            0            0   -8291.8517   -2.1699155    25.342563    25.364776     25.35165            0            0            0   0.39652754 
      56    16296.254    155.57634   -1562.1155    199.87346   -2046.4496   -1846.5762    -2217.835    362.09852    5883.4446   -2046.4496            0            0            0            0            0   -8291.9928   -2.1699155    25.342563    25.364776     25.35165            0            0            0   0.39652754 
      57    16296.254    154.84959   -1559.1711    198.93978   -2044.9573   -1846.0175   -2216.5766    361.57998    5885.6006   -2044.9573            0            0            0            0            0   -8292.1379   -2.1699155    25.342563    25.364776     25.35165            0            0            0   0.39652754 
      58    16296.254    154.35606   -1561.6188    198.30573   -2044.0174   -1845.7116   -2216.8525    361.12745    5887.1373   -2044.0174            0            0            0            0            0   -8292.2821   -2.1699155    25.342563    25.364776     25.35165            0            0            0   0.39652754 
      59    16296.254    154.11442   -1562.6959    197.99529   -2043.2815   -1845.2862    -2216.683    360.73334    5888.4057   -2043.2815            0            0            0            0            0   -8292.4206   -2.1699155    25.342563    25.364776     25.35165            0            0            0   0.39652754 
      60    16296.254    154.12508   -1563.9219    198.00897   -2042.8285   -1844.8195   -2216.5077    360.39065    5889.3296   -2042.8285            0            0            0            0            0   -8292.5488   -2.1699155    25.342563    25.364776     25.35165            0            0            0   0.39652754 
      61    16296.254    154.37234   -1563.3394    198.32664   -2042.5325   -1844.2059   -2215.7556    360.09149    5890.0389   -2042.5325            0            0            0            0            0   -8292.6629   -2.1699155    25.342563    25.364776     25.35165            0            0            0   0.39652754 
      62    16296.254    154.82637   -1566.8304    198.90994   -2042.6721   -1843.7622   -2216.1416    359.83077    5890.2572   -2042.6721            0            0            0            0            0   -8292.7602   -2.1699155    25.342563    25.364776     25.35165            0            0            0   0.39652754 
      63    16296.254    155.44603   -1570.3454    199.70604   -2042.9924   -1843.2864   -2216.5012    359.60206    5890.2445   -2042.9924            0            0            0            0            0    -8292.839   -2.1699155    25.342563    25.364776     25.35165            0            0            0   0.39652754 
      64    16296.254    156.18274   -1573.7768    200.65251   -2043.4463   -1842.7938   -2216.8241    359.39948    5890.0532   -2043.4463            0            0            0            0            0    -8292.899   -2.1699155    25.342563    25.364776     25.35165            0            0            0   0.39652754 
      65    16296.254     156.9846   -1578.8719    201.68269   -2044.0638   -1842.3811   -2217.6223     359.2217    5889.6554   -2044.0638            0            0            0            0            0   -8292.9408   -2.1699155    25.342563    25.364776     25.35165            0            0            0   0.39652754 
      66    16296.254     157.8013   -1581.8324    202.73192    -2044.622   -1841.8901    -2217.835     359.0639    5889.2804    -2044.622            0            0            0            0            0   -8292.9663   -2.1699155    25.342563    25.364776     25.35165            0            0            0   0.39652754 
      67    16296.254    158.58884   -1584.6047    203.74371   -2045.1596   -1841.4158   -2218.0196    358.92502    5888.8934   -2045.1596            0            0            0            0            0   -8292.9779   -2.1699155    25.342563    25.364776     25.35165            0            0            0   0.39652754 
      68    16296.254    159.31377   -1585.5213    204.67504   -2045.5702   -1840.8952   -2217.7168    358.80189    5888.6068   -2045.5702            0            0            0            0            0   -8292.9789   -2.1699155    25.342563    25.364776     25.35165            0            0            0   0.39652754 
      69    16296.254    159.95397   -1585.7672    205.49753   -2045.8935    -1840.396    -2217.276    358.69591    5888.3834   -2045.8935            0            0            0            0            0   -8292.9728   -2.1699155    25.342563    25.364776     25.35165            0            0            0   0.39652754 
      70    16296.254    160.49914   -1585.6077    206.19792   -2046.1251   -1839.9271   -2216.7692    358.60396    5888.2342   -2046.1251            0            0            0            0            0   -8292.9632   -2.1699155    25.342563    25.364776     25.35165            0            0            0   0.39652754 
      71    16296.254    160.95282   -1583.6385    206.78078   -2046.2037   -1839.4229    -2215.797    358.52481    5888.2249   -2046.2037            0            0            0            0            0   -8292.9534   -2.1699155    25.342563    25.364776     25.35165            0            0            0   0.39652754 
      72    16296.254    161.32796   -1581.3917    207.26273   -2046.2027     -1838.94   -2214.7801    358.45849    5888.2851   -2046.2027            0            0            0            0            0   -8292.9463   -2.1699155    25.342563    25.364776     25.35165            0            0            0   0.39652754 
      73    16296.254    161.64266    -1578.773    207.66703   -2046.1315   -1838.4644   -2213.6822    358.40401    5888.4086   -2046.1315            0            0            0            0            0    -8292.944   -2.1699155    25.342563    25.364776     25.35165            0            0            0   0.39652754 
      74    16296.254    161.91589   -1575.6551    208.01807    -2045.998   -1837.9799   -2212.4566    358.35784     5888.592    -2045.998            0            0            0            0            0   -8292.9478   -2.1699155    25.342563    25.364776     25.35165            0            0            0   0.39652754 
      75    16296.254    162.16167   -1573.3395    208.33382   -2045.8788    -1837.545   -2211.4714    358.32027    5888.7586   -2045.8788            0            0            0            0            0   -8292.9577   -2.1699155    25.342563    25.364776     25.35165            0            0            0   0.39652754 
      76    16296.254    162.38568   -1571.3937    208.62162   -2045.7489   -1837.1273   -2210.5912     358.2883    5888.9355   -2045.7489            0            0            0            0            0   -8292.9727   -2.1699155    25.342563    25.364776     25.35165            0            0            0   0.39652754 
      77    16296.254     162.5836   -1568.2249    208.87589   -2045.5214   -1836.6455   -2209.3564    358.25991    5889.2094   -2045.5214            0            0            0            0            0   -8292.9907   -2.1699155    25.342563    25.364776     25.35165            0            0            0   0.39652754 
      78    16296.254    162.74141   -1564.7613    209.07862   -2045.2236    -1836.145   -2208.0326    358.23452    5889.5508   -2045.2236            0            0            0            0            0   -8293.0089   -2.1699155    25.342563    25.364776     25.35165            0            0            0   0.39652754 
      79    16296.254    162.83834   -1560.4743    209.20316   -2044.8031   -1835.5999   -2206.4687    358.21153    5890.0094   -2044.8031            0            0            0            0            0    -8293.024   -2.1699155    25.342563    25.364776     25.35165            0            0            0   0.39652754 
      80    16296.254    162.84814   -1557.7686    209.21575   -2044.3652   -1835.1495   -2205.3752    358.19075    5890.4766   -2044.3652            0            0            0            0            0   -8293.0326   -2.1699155    25.342563    25.364776     25.35165            0            0            0   0.39652754 
      81    16296.254    162.74328   -1552.9683    209.08103   -2043.6902   -1834.6092   -2203.6941    358.17333    5891.1681   -2043.6902            0            0            0            0            0   -8293.0316   -2.1699155    25.342563    25.364776     25.35165            0            0            0   0.39652754 
      82    16296.254      162.502   -1550.1007    208.77105   -2042.9569   -1834.1858   -2202.5892    358.16089    5891.9014   -2042.9569            0            0            0            0            0   -8293.0191   -2.1699155    25.342563    25.364776     25.35165            0            0            0   0.39652754 
      83    16296.254    162.11139   -1543.9683    208.26923   -2041.8881   -1833.6188   -2200.5647    358.15491    5892.9512   -2041.8881            0            0            0            0            0   -8292.9941   -2.1699155    25.342563    25.364776     25.35165            0            0            0   0.39652754 
      84    16296.254     161.5726   -1537.1915    207.57703   -2040.6192   -1833.0422   -2198.3775    358.15606     5894.182   -2040.6192            0            0            0            0            0   -8292.9573   -2.1699155    25.342563    25.364776     25.35165            0            0            0   0.39652754 
      85    16296.254    160.90634   -1530.8908    206.72107   -2039.2352   -1832.5141   -2196.3519    358.16939    5895.5064   -2039.2352            0            0            0            0            0   -8292.9109   -2.1699155    25.342563    25.364776     25.35165            0            0            0   0.39652754 
      86    16296.254    160.15614   -1522.7383    205.75726   -2037.6512   -1831.8939   -2193.7942    358.19422    5897.0136   -2037.6512            0            0            0            0            0    -8292.859   -2.1699155    25.342563    25.364776     25.35165            0            0            0   0.39652754 
      87    16296.254    159.38504   -1516.3366     204.7666   -2036.1179   -1831.3513   -2191.7301    358.23309    5898.4558   -2036.1179            0            0            0            0            0   -8292.8067   -2.1699155    25.342563    25.364776     25.35165            0            0            0   0.39652754 
      88    16296.254    158.67117   -1511.2158    203.84947   -2034.6903   -1830.8408   -2190.0026    358.28664    5899.7836   -2034.6903            0            0            0            0            0   -8292.7606   -2.1699155    25.342563    25.364776     25.35165            0            0            0   0.39652754 
      89    16296.254    158.10518   -1506.4393    203.12234   -2033.4047   -1830.2824    -2188.309     358.3554    5900.9671   -2033.4047            0            0            0            0            0   -8292.7272   -2.1699155    25.342563    25.364776     25.35165            0            0            0   0.39652754 
      90    16296.254    157.77924    -1503.111    202.70358   -2032.4225   -1829.7189   -2186.9545    358.43666    5901.8541   -2032.4225            0            0            0            0            0   -8292.7132   -2.1699155    25.342563    25.364776     25.35165            0            0            0   0.39652754 
      91    16296.254    157.77728   -1503.7747    202.70107   -2031.9508   -1829.2497   -2186.6431    358.53152    5902.2418   -2031.9508            0            0            0            0            0   -8292.7241   -2.1699155    25.342563    25.364776     25.35165            0            0            0   0.39652754 
      92    16296.254     158.1665   -1503.9866    203.20111   -2031.8334   -1828.6323    -2186.076    358.63508    5902.2953   -2031.8334            0            0            0            0            0   -8292.7637   -2.1699155    25.342563    25.364776     25.35165            0            0            0   0.39652754 
      93    16296.254    158.98537   -1507.0484    204.25314    -2032.294   -1828.0409   -2186.2123    358.74836    5901.7914    -2032.294            0            0            0            0            0   -8292.8338   -2.1699155    25.342563    25.364776     25.35165            0            0            0   0.39652754 
      94    16296.254    160.23857    -1513.236    205.86316   -2033.3486   -1827.4854   -2187.1274     358.8678     5900.717   -2033.3486            0            0            0            0            0   -8292.9334   -2.1699155    25.342563    25.364776     25.35165            0            0            0   0.39652754 
      95    16296.254    161.89438   -1521.2835    207.99043   -2034.9091   -1826.9187   -2188.4732     358.9934    5899.1563   -2034.9091            0            0            0            0            0   -8293.0588   -2.1699155    25.342563    25.364776     25.35165            0            0            0   0.39652754 
      96    16296.254    163.88405   -1529.7404    210.54662   -2036.8369   -1826.2903   -2189.8548    359.12388     5897.243   -2036.8369            0            0            0            0            0   -8293.2037   -2.1699155    25.342563    25.364776     25.35165            0            0            0   0.39652754 
      97    16296.254    166.10447   -1540.3106    213.39925   -2039.1356   -1825.7363   -2191.8129    359.25941    5894.9647   -2039.1356            0            0            0            0            0   -8293.3597   -2.1699155    25.342563    25.364776     25.35165            0            0            0   0.39652754 
      98    16296.254    168.42631   -1550.7896    216.38219   -2041.5604   -1825.1782   -2193.7453    359.40233    5892.5538   -2041.5604            0            0            0            0            0   -8293.5166   -2.1699155    25.342563    25.364776     25.35165            0            0            0   0.39652754 
      99    16296.254    170.70512   -1557.9319    219.30984   -2043.8128   -1824.5029   -2194.7675    359.55566    5890.2954   -2043.8128            0            0            0            0            0   -8293.6638   -2.1699155    25.342563    25.364776     25.35165            0            0            0   0.39652754 
     100    16296.254    172.79418   -1562.2243    221.99371   -2045.7868   -1823.7931   -2195.0778    359.72399    5888.2802   -2045.7868            0            0            0            0            0    -8293.791   -2.1699155    25.342563    25.364776     25.35165            0            0            0   0.39652754 
Loop time of 2.65265 on 1 procs for 100 steps with 648 atoms

Pair  time (%) = 1.62824 (61.3817)
Bond  time (%) = 8.17776e-05 (0.00308286)
Kspce time (%) = 0.694664 (26.1875)
Neigh time (%) = 0.0320778 (1.20927)
Comm  time (%) = 0.012536 (0.472585)
Outpt time (%) = 0.262144 (9.88231)
Other time (%) = 0.0229077 (0.863578)

Nlocal:    648 ave 648 max 648 min
Histogram: 1 0 0 0 0 0 0 0 0 0
Nghost:    5593 ave 5593 max 5593 min
Histogram: 1 0 0 0 0 0 0 0 0 0
Neighs:    158739 ave 158739 max 158739 min
Histogram: 1 0 0 0 0 0 0 0 0 0

Total # of neighbors = 158739
Ave neighs/atom = 244.968
Ave special neighs/atom = 2
Neighbor list builds = 2
Dangerous builds = 0


write_restart   restart.${NAME}
write_restart   restart.mol
Ewald initialization ...
  G vector (1/distance) = 0.203418
  estimated absolute RMS force accuracy = 0.0332238
  estimated relative force accuracy = 0.000100053
  KSpace vectors: actual max1d max3d = 257 5 665
                  kxmax kymax kzmax  = 5 5 5
write_data      restart.data
Ewald initialization ...
  G vector (1/distance) = 0.203418
  estimated absolute RMS force accuracy = 0.0332238
  estimated relative force accuracy = 0.000100053
  KSpace vectors: actual max1d max3d = 257 5 665
                  kxmax kymax kzmax  = 5 5 5
