ITEM: TIMESTEP
0
ITEM: NUMBER OF ATOMS
648
ITEM: BOX BOUNDS pp pp pp
-12.6713 12.6713
-12.6824 12.6824
-12.6758 12.6758
ITEM: ATOMS id type x y z vx vy vz mol mass 
246 2 -10.5102 -6.44377 -7.83866 0 0 0 82 1.008 
277 1 -6.65128 -8.17405 -7.04939 0 0 0 93 16 
278 2 -7.12259 -7.36428 -6.69951 0 0 0 93 1.008 
279 2 -7.12165 -8.99718 -6.73084 0 0 0 93 1.008 
281 2 -4.29408 -9.32857 -11.8981 0 0 0 94 1.008 
562 1 -4.46184 -6.51339 -7.5287 0 0 0 188 16 
563 2 -5.22048 -7.16502 -7.54026 0 0 0 188 1.008 
280 1 -3.42319 -9.3479 -11.4068 0 0 0 94 16 
564 2 -4.02461 -6.52673 -6.6293 0 0 0 188 1.008 
214 1 -2.85804 -7.07365 -9.70747 0 0 0 72 16 
215 2 -2.11813 -7.69753 -9.45532 0 0 0 72 1.008 
216 2 -3.35602 -6.79753 -8.88525 0 0 0 72 1.008 
282 2 -3.28791 -8.47714 -10.9337 0 0 0 94 1.008 
292 1 -1.52427 -9.46135 -9.21833 0 0 0 98 16 
293 2 -1.01313 -10.2695 -8.9253 0 0 0 98 1.008 
294 2 -2.00923 -9.66404 -10.0692 0 0 0 98 1.008 
488 2 -6.44286 -6.6123 -2.71041 0 0 0 163 1.008 
572 2 -3.40422 -6.65291 -4.16878 0 0 0 191 1.008 
148 1 -1.27235 -8.8516 -2.45097 0 0 0 50 16 
149 2 -1.24416 -9.77789 -2.82708 0 0 0 50 1.008 
150 2 -1.38301 -8.89819 -1.45806 0 0 0 50 1.008 
378 2 -0.157074 -7.38883 -2.77621 0 0 0 126 1.008 
631 1 -3.2974 -6.74792 -2.31812 0 0 0 211 16 
632 2 -2.78653 -7.59781 -2.44841 0 0 0 211 1.008 
633 2 -3.50457 -6.62905 -1.34692 0 0 0 211 1.008 
259 1 -5.04069 -7.48492 3.38767 0 0 0 87 16 
260 2 -4.64174 -6.58646 3.20357 0 0 0 87 1.008 
261 2 -4.4961 -8.19072 2.93428 0 0 0 87 1.008 
340 1 -4.62919 -9.62747 1.67227 0 0 0 114 16 
341 2 -5.62832 -9.58479 1.68646 0 0 0 114 1.008 
342 2 -4.31939 -10.38 2.25361 0 0 0 114 1.008 
415 1 -7.343 -8.98775 2.51252 0 0 0 139 16 
416 2 -6.73864 -8.22785 2.75246 0 0 0 139 1.008 
417 2 -8.15449 -8.96557 3.0967 0 0 0 139 1.008 
346 1 -0.749986 -6.56206 1.41746 0 0 0 116 16 
347 2 -0.415062 -6.91331 2.29194 0 0 0 116 1.008 
490 1 -2.2111 -8.56549 0.0382812 0 0 0 164 16 
491 2 -3.03961 -8.87451 0.505568 0 0 0 164 1.008 
492 2 -1.74683 -7.88101 0.60061 0 0 0 164 1.008 
43 1 -7.94774 -9.80148 6.91754 0 0 0 15 16 
44 2 -7.24745 -9.87473 6.20726 0 0 0 15 1.008 
45 2 -7.93936 -8.87735 7.2999 0 0 0 15 1.008 
76 1 -8.18356 -7.14275 8.10131 0 0 0 26 16 
77 2 -8.67452 -7.53801 8.87784 0 0 0 26 1.008 
78 2 -8.82387 -6.63272 7.52672 0 0 0 26 1.008 
122 2 -10.9233 -6.46759 5.83752 0 0 0 41 1.008 
334 1 -9.16042 -8.67844 4.7222 0 0 0 112 16 
335 2 -9.43418 -7.83651 5.18748 0 0 0 112 1.008 
336 2 -9.06905 -9.41513 5.39243 0 0 0 112 1.008 
610 1 -5.92431 -9.51161 5.04791 0 0 0 204 16 
611 2 -6.59439 -9.78225 4.35652 0 0 0 204 1.008 
612 2 -5.65211 -8.56155 4.89444 0 0 0 204 1.008 
90 2 -1.48201 -9.84979 4.81654 0 0 0 30 1.008 
290 2 -3.1915 -9.53293 6.85763 0 0 0 97 1.008 
291 2 -4.19719 -9.77254 5.59331 0 0 0 97 1.008 
73 1 -3.2817 -11.3361 10.188 0 0 0 25 16 
74 2 -3.39122 -11.2753 11.1803 0 0 0 25 1.008 
75 2 -2.99776 -12.2625 9.94016 0 0 0 25 1.008 
88 1 -0.502616 -9.67133 4.91254 0 0 0 30 16 
89 2 -0.249752 -9.71089 5.87937 0 0 0 30 1.008 
146 2 -2.95924 -6.39006 7.65651 0 0 0 49 1.008 
202 1 -2.74385 -9.2248 8.4563 0 0 0 68 16 
203 2 -2.96388 -9.924 9.13674 0 0 0 68 1.008 
204 2 -3.01419 -8.3262 8.80228 0 0 0 68 1.008 
265 1 -2.24272 -6.78538 6.01739 0 0 0 89 16 
266 2 -2.56743 -7.70456 5.79389 0 0 0 89 1.008 
289 1 -3.24713 -9.61347 5.8623 0 0 0 97 16 
505 1 -0.138367 -6.71193 7.80043 0 0 0 169 16 
506 2 -0.936779 -6.55809 7.21807 0 0 0 169 1.008 
520 1 -0.0428687 -9.59129 7.69486 0 0 0 174 16 
521 2 -0.877985 -9.8142 8.19802 0 0 0 174 1.008 
244 1 -10.1877 -5.68274 -7.27552 0 0 0 82 16 
245 2 -9.40398 -5.98032 -6.73008 0 0 0 82 1.008 
403 1 -5.95094 -4.2571 -6.85396 0 0 0 135 16 
404 2 -5.34905 -4.84525 -7.39442 0 0 0 135 1.008 
406 1 -7.83446 -6.01451 -5.7825 0 0 0 136 16 
407 2 -7.39372 -5.17649 -6.10462 0 0 0 136 1.008 
408 2 -7.59217 -6.17174 -4.82498 0 0 0 136 1.008 
571 1 -3.30715 -6.25516 -5.08127 0 0 0 191 16 
573 2 -3.24974 -5.25947 -5.00652 0 0 0 191 1.008 
40 1 -1.99919 -5.27178 -11.6538 0 0 0 14 16 
41 2 -1.51546 -5.81735 -12.3384 0 0 0 14 1.008 
42 2 -2.38566 -5.87692 -10.9576 0 0 0 14 1.008 
608 2 -1.23196 -4.19705 -6.98333 0 0 0 203 1.008 
405 2 -5.42045 -3.50243 -6.46754 0 0 0 135 1.008 
295 1 -8.7296 -3.26151 -6.77171 0 0 0 99 16 
296 2 -9.37395 -4.02177 -6.85602 0 0 0 99 1.008 
297 2 -7.80251 -3.58826 -6.95614 0 0 0 99 1.008 
319 1 -5.02805 -1.7953 -5.3913 0 0 0 107 16 
320 2 -6.0072 -1.60089 -5.33003 0 0 0 107 1.008 
321 2 -4.57697 -1.07304 -5.91585 0 0 0 107 1.008 
541 1 -7.59713 -0.739438 -6.1764 0 0 0 181 16 
542 2 -7.96948 -1.65465 -6.33137 0 0 0 181 1.008 
543 2 -7.60183 -0.227732 -7.03571 0 0 0 181 1.008 
475 1 -1.8209 -3.11856 -9.8385 0 0 0 159 16 
477 2 -1.66251 -3.83536 -10.5178 0 0 0 159 1.008 
607 1 -1.11684 -3.23216 -7.22001 0 0 0 203 16 
609 2 -1.26312 -3.11 -8.20182 0 0 0 203 1.008 
414 2 -3.32097 -0.129427 -7.44972 0 0 0 138 1.008 
427 1 -3.43421 -1.07275 -9.02777 0 0 0 143 16 
428 2 -2.95936 -1.9135 -9.28843 0 0 0 143 1.008 
429 2 -3.57827 -0.506012 -9.83914 0 0 0 143 1.008 
13 1 -2.84449 -3.43094 -5.04227 0 0 0 5 16 
14 2 -2.36833 -3.23011 -5.89855 0 0 0 5 1.008 
15 2 -3.57423 -2.76161 -4.90172 0 0 0 5 1.008 
476 2 -1.41872 -2.26079 -10.1591 0 0 0 159 1.008 
493 1 -0.845538 -0.77723 -10.7344 0 0 0 165 16 
494 2 -0.834425 -0.0714261 -10.0259 0 0 0 165 1.008 
495 2 -0.603718 -0.369414 -11.615 0 0 0 165 1.008 
487 1 -7.24043 -6.18493 -3.13645 0 0 0 163 16 
489 2 -7.71407 -5.61725 -2.46289 0 0 0 163 1.008 
177 2 -2.23729 -5.42963 -2.84247 0 0 0 59 1.008 
377 2 -0.147436 -5.77918 -3.0524 0 0 0 126 1.008 
176 2 -1.91039 -4.11215 -3.75063 0 0 0 59 1.008 
175 1 -1.6028 -4.66861 -2.9786 0 0 0 59 16 
553 1 -1.53971 -3.87918 -0.370148 0 0 0 185 16 
554 2 -1.48637 -4.04773 -1.35454 0 0 0 185 1.008 
140 2 -0.352046 -2.89699 -3.33207 0 0 0 47 1.008 
425 2 -1.20063 -0.314996 -0.158604 0 0 0 142 1.008 
466 1 -0.0160201 -0.0603934 -1.65147 0 0 0 156 16 
362 2 -4.58716 -4.38292 3.14377 0 0 0 121 1.008 
361 1 -3.89815 -5.07352 2.92332 0 0 0 121 16 
363 2 -2.98685 -4.70753 3.11266 0 0 0 121 1.008 
348 2 -0.289893 -5.69946 1.20646 0 0 0 116 1.008 
358 1 -3.53203 -5.6415 0.24651 0 0 0 120 16 
359 2 -3.80601 -5.58564 1.20676 0 0 0 120 1.008 
360 2 -2.78002 -5.00435 0.0768083 0 0 0 120 1.008 
174 2 -4.42704 -2.55311 0.613464 0 0 0 58 1.008 
544 1 -5.54917 -3.06793 3.68332 0 0 0 182 16 
546 2 -4.85873 -2.3527 3.79297 0 0 0 182 1.008 
210 2 -0.632645 -3.58826 3.44862 0 0 0 70 1.008 
555 2 -0.651076 -4.06655 0.048779 0 0 0 185 1.008 
172 1 -3.49259 -2.2456 0.793756 0 0 0 58 16 
533 2 -3.36727 -0.801087 3.19994 0 0 0 178 1.008 
173 2 -2.84535 -2.92298 0.443722 0 0 0 58 1.008 
224 2 -0.046826 -0.480671 1.94071 0 0 0 75 1.008 
424 1 -1.31665 -0.54856 0.806934 0 0 0 142 16 
426 2 -2.18258 -1.03341 0.9309 0 0 0 142 1.008 
532 1 -3.33466 -1.30623 4.06252 0 0 0 178 16 
534 2 -2.7524 -2.11226 3.95501 0 0 0 178 1.008 
208 1 -1.57132 -3.74724 3.75505 0 0 0 70 16 
121 1 -10.0156 -6.29761 6.22164 0 0 0 41 16 
123 2 -9.88199 -5.31333 6.33833 0 0 0 41 1.008 
184 1 -6.08927 -5.36935 8.04817 0 0 0 62 16 
185 2 -6.80113 -6.07043 8.00329 0 0 0 62 1.008 
186 2 -5.24777 -5.77136 8.40947 0 0 0 62 1.008 
97 1 -2.20434 -4.19813 9.91615 0 0 0 33 16 
98 2 -1.27133 -4.55487 9.9664 0 0 0 33 1.008 
145 1 -3.41977 -6.2846 8.53802 0 0 0 49 16 
147 2 -3.01137 -5.52087 9.03823 0 0 0 49 1.008 
267 2 -2.61754 -6.13061 5.36084 0 0 0 89 1.008 
474 2 -0.0452703 -5.96013 9.40936 0 0 0 158 1.008 
545 2 -6.14714 -3.07972 4.48492 0 0 0 182 1.008 
454 1 -7.09778 -3.17368 9.78255 0 0 0 152 16 
455 2 -6.63165 -2.9223 10.631 0 0 0 152 1.008 
456 2 -6.60313 -3.92147 9.33937 0 0 0 152 1.008 
196 1 -6.65743 -3.33033 6.41143 0 0 0 66 16 
197 2 -6.36369 -4.19687 6.81529 0 0 0 66 1.008 
198 2 -5.86834 -2.72365 6.31368 0 0 0 66 1.008 
253 1 -7.98795 -1.31544 7.85872 0 0 0 85 16 
254 2 -7.5128 -2.03001 7.34502 0 0 0 85 1.008 
255 2 -7.93043 -1.51406 8.83725 0 0 0 85 1.008 
364 1 -9.52823 -3.58989 6.27264 0 0 0 122 16 
365 2 -8.55139 -3.44295 6.11621 0 0 0 122 1.008 
366 2 -9.91848 -2.78614 6.72205 0 0 0 122 1.008 
436 1 -4.56069 -1.57764 6.44788 0 0 0 146 16 
209 2 -1.63399 -3.57822 4.73881 0 0 0 70 1.008 
99 2 -2.65706 -4.32322 10.7991 0 0 0 33 1.008 
437 2 -3.96648 -1.53896 7.25144 0 0 0 146 1.008 
438 2 -4.01291 -1.44575 5.62156 0 0 0 146 1.008 
193 1 -1.50922 -3.53253 6.4289 0 0 0 65 16 
194 2 -0.519888 -3.41964 6.52248 0 0 0 65 1.008 
195 2 -1.9771 -2.87754 7.02249 0 0 0 65 1.008 
220 1 -0.284184 -0.612415 9.22689 0 0 0 74 16 
385 1 -2.66652 -1.88068 8.36936 0 0 0 129 16 
386 2 -2.05335 -1.18273 8.7397 0 0 0 129 1.008 
387 2 -2.56636 -2.72544 8.89531 0 0 0 129 1.008 
82 1 -7.56707 1.8145 -4.75675 0 0 0 28 16 
84 2 -7.14275 0.910255 -4.70604 0 0 0 28 1.008 
413 2 -4.14528 1.13382 -6.82356 0 0 0 138 1.008 
421 1 -7.83767 2.07255 -7.541 0 0 0 141 16 
422 2 -7.7343 1.86886 -6.56729 0 0 0 141 1.008 
423 2 -8.80985 2.10293 -7.77384 0 0 0 141 1.008 
514 1 -5.15966 2.66782 -7.24636 0 0 0 172 16 
515 2 -5.93244 2.35728 -7.80014 0 0 0 172 1.008 
516 2 -5.49903 3.06548 -6.39373 0 0 0 172 1.008 
597 2 -6.26628 3.30325 -4.50299 0 0 0 199 1.008 
595 1 -5.60552 3.93164 -4.91384 0 0 0 199 16 
412 1 -3.68482 0.272257 -6.60916 0 0 0 138 16 
430 1 -2.88884 4.12587 -5.40187 0 0 0 144 16 
432 2 -3.85161 4.06555 -5.13787 0 0 0 144 1.008 
34 1 -0.973086 1.62678 -9.13392 0 0 0 12 16 
35 2 -0.402354 1.40781 -8.34234 0 0 0 12 1.008 
36 2 -1.74525 2.1915 -8.84215 0 0 0 12 1.008 
46 1 -2.72898 3.68971 -8.07295 0 0 0 16 16 
47 2 -3.66746 3.43865 -7.83524 0 0 0 16 1.008 
152 2 -0.648964 1.43107 -5.82229 0 0 0 51 1.008 
372 2 -0.345201 1.7972 -10.7917 0 0 0 124 1.008 
394 1 -2.09851 1.60918 -4.84175 0 0 0 132 16 
395 2 -2.81079 0.966636 -5.12473 0 0 0 132 1.008 
396 2 -2.37932 2.54095 -5.07245 0 0 0 132 1.008 
431 2 -2.80945 4.0391 -6.39507 0 0 0 144 1.008 
48 2 -2.7417 4.44896 -8.72384 0 0 0 16 1.008 
170 2 -1.64354 4.68812 -4.27776 0 0 0 57 1.008 
83 2 -8.02462 2.01707 -3.89079 0 0 0 28 1.008 
57 2 -6.94353 1.98182 -0.090535 0 0 0 19 1.008 
93 2 -5.21878 3.23905 -0.381552 0 0 0 31 1.008 
247 1 -9.09286 2.25619 -2.45508 0 0 0 83 16 
248 2 -8.68634 2.19136 -1.54359 0 0 0 83 1.008 
249 2 -9.91523 2.82389 -2.41371 0 0 0 83 1.008 
313 1 -0.659279 2.50228 -2.55046 0 0 0 105 16 
314 2 -0.682154 3.4841 -2.73961 0 0 0 105 1.008 
315 2 -1.22464 2.0205 -3.22019 0 0 0 105 1.008 
467 2 -0.327319 0.823973 -1.99971 0 0 0 156 1.008 
623 2 -1.58123 2.84855 -0.279796 0 0 0 208 1.008 
596 2 -5.51535 4.74413 -4.33763 0 0 0 199 1.008 
27 2 -6.9086 5.0654 -0.263316 0 0 0 9 1.008 
142 1 -5.39422 4.78009 -1.22016 0 0 0 48 16 
143 2 -4.40864 4.95013 -1.22282 0 0 0 48 1.008 
144 2 -5.82281 5.29191 -1.96489 0 0 0 48 1.008 
328 1 -10.5466 5.77367 -3.40932 0 0 0 110 16 
329 2 -9.88891 5.53847 -4.12511 0 0 0 110 1.008 
536 2 -9.99588 6.26618 -1.71514 0 0 0 179 1.008 
537 2 -9.05463 5.97894 -0.411714 0 0 0 179 1.008 
398 2 -4.24704 6.28241 -2.78588 0 0 0 133 1.008 
169 1 -1.03901 5.03687 -3.56139 0 0 0 57 16 
171 2 -0.413283 5.7119 -3.95264 0 0 0 57 1.008 
418 1 -2.91502 5.80552 -1.6194 0 0 0 140 16 
419 2 -2.21295 5.42672 -2.22263 0 0 0 140 1.008 
420 2 -2.47766 6.26357 -0.845324 0 0 0 140 1.008 
26 2 -7.99086 3.99194 0.323 0 0 0 9 1.008 
55 1 -7.90741 2.15052 0.116251 0 0 0 19 16 
56 2 -8.23551 1.46078 0.76192 0 0 0 19 1.008 
91 1 -5.1026 2.34018 0.0413086 0 0 0 31 16 
269 2 -7.14104 1.91135 3.72915 0 0 0 90 1.008 
373 1 -5.71444 2.15468 2.81564 0 0 0 125 16 
374 2 -5.52671 2.35103 1.8531 0 0 0 125 1.008 
375 2 -5.34716 2.8912 3.3839 0 0 0 125 1.008 
92 2 -4.12909 2.16416 0.188128 0 0 0 31 1.008 
622 1 -2.25439 2.36443 0.279448 0 0 0 208 16 
624 2 -1.9921 2.42382 1.24275 0 0 0 208 1.008 
539 2 -0.903884 3.94691 2.16877 0 0 0 180 1.008 
160 1 -2.03639 2.75969 2.95035 0 0 0 54 16 
161 2 -2.82756 3.09059 3.46498 0 0 0 54 1.008 
162 2 -1.44605 2.22411 3.55444 0 0 0 54 1.008 
250 1 -0.0784879 1.12283 4.19138 0 0 0 84 16 
25 1 -7.7576 4.96213 0.255152 0 0 0 9 16 
258 2 -8.2417 5.04373 4.06528 0 0 0 86 1.008 
634 1 -7.90038 6.29899 2.64997 0 0 0 212 16 
636 2 -7.80785 5.81797 1.778 0 0 0 212 1.008 
207 2 -4.3297 4.65155 4.5062 0 0 0 69 1.008 
200 2 -0.993181 5.95641 0.692299 0 0 0 67 1.008 
538 1 -0.37399 4.53398 1.55653 0 0 0 180 16 
268 1 -7.90286 1.7401 4.35412 0 0 0 90 16 
85 1 -6.43682 0.570811 6.71168 0 0 0 29 16 
86 2 -7.00805 0.0131639 7.31418 0 0 0 29 1.008 
87 2 -5.58896 0.0807551 6.50859 0 0 0 29 1.008 
206 2 -4.63938 3.37268 5.47365 0 0 0 69 1.008 
270 2 -7.59494 1.15125 5.10159 0 0 0 90 1.008 
574 1 -6.08706 3.30409 6.62084 0 0 0 192 16 
575 2 -6.9178 3.57199 6.13259 0 0 0 192 1.008 
576 2 -6.20626 2.38791 7.00381 0 0 0 192 1.008 
257 2 -8.07886 3.51528 4.61727 0 0 0 86 1.008 
205 1 -4.16353 3.67552 4.64773 0 0 0 69 16 
221 2 -0.103629 0.00883874 9.9896 0 0 0 74 1.008 
251 2 -0.00961092 0.854727 5.15245 0 0 0 84 1.008 
256 1 -7.71389 4.44506 4.66801 0 0 0 86 16 
593 2 -5.90528 6.04772 4.93918 0 0 0 198 1.008 
481 1 -6.25454 5.73197 7.92461 0 0 0 161 16 
482 2 -7.08749 6.17217 7.58892 0 0 0 161 1.008 
483 2 -6.13741 4.84913 7.46947 0 0 0 161 1.008 
178 1 -1.13703 5.223 8.15029 0 0 0 60 16 
179 2 -0.227259 5.62121 8.2687 0 0 0 60 1.008 
180 2 -1.06368 4.37366 7.62729 0 0 0 60 1.008 
274 1 -2.31102 6.23282 10.4205 0 0 0 92 16 
276 2 -1.88499 5.81275 9.61902 0 0 0 92 1.008 
559 1 -12.5542 7.48831 -4.71424 0 0 0 187 16 
560 2 -12.4221 7.10439 -5.62826 0 0 0 187 1.008 
132 2 -12.13 6.3701 -7.98909 0 0 0 44 1.008 
565 1 -0.480095 8.21967 -8.62793 0 0 0 189 16 
566 2 -1.18569 8.92655 -8.57563 0 0 0 189 1.008 
330 2 -11.268 6.34892 -3.79538 0 0 0 110 1.008 
397 1 -5.01171 6.44835 -3.40879 0 0 0 133 16 
399 2 -4.92776 7.36357 -3.80326 0 0 0 133 1.008 
535 1 -9.72288 6.60464 -0.814477 0 0 0 179 16 
352 1 -9.92882 7.96812 1.63751 0 0 0 118 16 
353 2 -10.0335 7.73491 0.670588 0 0 0 118 1.008 
354 2 -10.3797 8.84196 1.82036 0 0 0 118 1.008 
592 1 -5.38181 6.44494 4.18521 0 0 0 198 16 
594 2 -6.01039 6.83429 3.51172 0 0 0 198 1.008 
635 2 -8.59903 7.00972 2.56612 0 0 0 212 1.008 
199 1 -1.44371 6.80102 0.402597 0 0 0 67 16 
201 2 -1.5884 7.39109 1.19706 0 0 0 67 1.008 
556 1 -1.5606 8.28318 2.63537 0 0 0 186 16 
557 2 -0.593387 8.47257 2.8054 0 0 0 186 1.008 
558 2 -2.07144 9.14293 2.62279 0 0 0 186 1.008 
617 2 -2.52058 7.94872 4.12458 0 0 0 206 1.008 
101 2 -5.07211 6.82695 8.47265 0 0 0 34 1.008 
112 1 -7.99108 9.85488 7.95714 0 0 0 38 16 
113 2 -8.25955 10.8183 7.9534 0 0 0 38 1.008 
114 2 -7.06978 9.76702 8.33631 0 0 0 38 1.008 
229 1 -11.0233 6.90334 8.74127 0 0 0 77 16 
230 2 -10.1358 6.80574 8.29074 0 0 0 77 1.008 
231 2 -10.9124 7.42613 9.58665 0 0 0 77 1.008 
391 1 -8.68921 7.25862 7.26518 0 0 0 131 16 
392 2 -8.95071 7.20287 6.30144 0 0 0 131 1.008 
393 2 -8.46712 8.20606 7.49607 0 0 0 131 1.008 
529 1 -5.43783 10.0242 8.95002 0 0 0 177 16 
530 2 -5.09554 9.08585 8.8981 0 0 0 177 1.008 
100 1 -4.34663 7.43795 8.78987 0 0 0 34 16 
531 2 -4.69831 10.6334 9.23678 0 0 0 177 1.008 
338 2 -12.6365 6.48386 8.04558 0 0 0 113 1.008 
446 2 -2.99637 11.4559 8.14179 0 0 0 149 1.008 
618 2 -3.92326 7.33932 4.69772 0 0 0 206 1.008 
61 1 -0.902774 9.465 9.34433 0 0 0 21 16 
62 2 -0.770002 8.94202 10.1864 0 0 0 21 1.008 
63 2 -1.26268 8.86304 8.63131 0 0 0 21 1.008 
102 2 -3.5992 7.44116 8.12533 0 0 0 34 1.008 
275 2 -3.15639 6.69174 10.1466 0 0 0 92 1.008 
310 1 -1.94762 7.76089 7.41047 0 0 0 104 16 
311 2 -1.68424 6.83042 7.66569 0 0 0 104 1.008 
312 2 -2.23057 7.77603 6.45132 0 0 0 104 1.008 
445 1 -2.95287 11.4451 9.14093 0 0 0 149 16 
447 2 -2.1616 10.9084 9.43437 0 0 0 149 1.008 
496 1 -0.220372 7.63604 11.3225 0 0 0 166 16 
497 2 -0.121962 7.73886 12.3124 0 0 0 166 1.008 
498 2 -0.98961 7.02804 11.1253 0 0 0 166 1.008 
616 1 -3.04857 7.75284 4.9511 0 0 0 206 16 
181 1 8.64385 -7.79357 -4.57695 0 0 0 61 16 
182 2 9.6182 -7.57023 -4.54496 0 0 0 61 1.008 
183 2 8.18805 -7.20254 -5.24269 0 0 0 61 1.008 
235 1 6.76496 -6.69178 -8.2916 0 0 0 79 16 
237 2 6.53466 -7.65486 -8.1512 0 0 0 79 1.008 
550 1 6.39817 -6.49644 -11.1055 0 0 0 184 16 
551 2 6.29266 -6.35852 -10.1205 0 0 0 184 1.008 
552 2 7.32994 -6.80262 -11.3013 0 0 0 184 1.008 
376 1 0.42078 -6.59936 -2.98381 0 0 0 126 16 
547 1 2.69436 -6.68406 -1.39268 0 0 0 183 16 
548 2 1.85495 -6.61363 -1.93184 0 0 0 183 1.008 
549 2 2.47883 -7.04769 -0.486255 0 0 0 183 1.008 
648 2 4.11939 -7.67047 -2.28787 0 0 0 216 1.008 
604 1 7.43285 -8.58749 -2.04495 0 0 0 202 16 
606 2 8.03084 -8.24453 -2.76955 0 0 0 202 1.008 
646 1 4.81675 -7.93723 -2.95331 0 0 0 216 16 
647 2 4.45939 -7.81211 -3.879 0 0 0 216 1.008 
410 2 8.18245 -8.71715 -0.337807 0 0 0 137 1.008 
512 2 6.75154 -6.89246 -0.0226478 0 0 0 171 1.008 
605 2 6.47771 -8.46494 -2.31508 0 0 0 202 1.008 
3 2 0.239644 -8.36643 3.92212 0 0 0 1 1.008 
218 2 1.8243 -6.77912 2.8732 0 0 0 73 1.008 
1 1 0.518526 -7.41157 3.81848 0 0 0 1 16 
7 1 5.1661 -6.441 2.723 0 0 0 3 16 
9 2 4.19649 -6.39386 2.48237 0 0 0 3 1.008 
409 1 8.56862 -8.54579 0.568718 0 0 0 137 16 
411 2 8.89913 -7.6031 0.617512 0 0 0 137 1.008 
568 1 7.84264 -9.41293 3.27628 0 0 0 190 16 
569 2 8.00033 -9.13677 2.32804 0 0 0 190 1.008 
570 2 7.59999 -10.3828 3.30509 0 0 0 190 1.008 
2 2 0.950298 -7.09676 4.66391 0 0 0 1 1.008 
187 1 2.05115 -7.49035 6.2908 0 0 0 63 16 
188 2 2.84836 -6.91395 6.4711 0 0 0 63 1.008 
189 2 2.32282 -8.45254 6.31648 0 0 0 63 1.008 
507 2 0.680058 -6.7884 7.23069 0 0 0 169 1.008 
522 2 0.148161 -8.61348 7.78249 0 0 0 174 1.008 
4 1 6.29332 -7.56836 5.022 0 0 0 2 16 
5 2 6.72116 -8.32025 4.5201 0 0 0 2 1.008 
6 2 5.90527 -6.91303 4.37376 0 0 0 2 1.008 
518 2 4.60714 -6.34868 7.63883 0 0 0 173 1.008 
19 1 10.0083 -8.53377 4.80287 0 0 0 7 16 
20 2 9.21695 -8.91465 4.32429 0 0 0 7 1.008 
21 2 10.8465 -8.934 4.43211 0 0 0 7 1.008 
37 1 8.56983 -6.87838 6.45862 0 0 0 13 16 
38 2 7.70347 -7.08997 6.00593 0 0 0 13 1.008 
39 2 9.28396 -7.48738 6.11305 0 0 0 13 1.008 
157 1 5.13207 -6.5226 9.24054 0 0 0 53 16 
519 2 5.12255 -6.65858 6.12038 0 0 0 173 1.008 
33 2 5.36609 -6.04214 -12.4098 0 0 0 11 1.008 
236 2 6.96544 -6.26496 -7.40961 0 0 0 79 1.008 
508 1 7.06411 -5.57936 -5.67159 0 0 0 170 16 
509 2 7.02985 -5.69433 -4.67867 0 0 0 170 1.008 
510 2 7.05855 -4.60444 -5.89468 0 0 0 170 1.008 
16 1 0.681513 -1.45342 -6.18857 0 0 0 6 16 
17 2 0.492233 -1.76044 -5.25573 0 0 0 6 1.008 
18 2 0.0639443 -1.91729 -6.82396 0 0 0 6 1.008 
478 1 3.02048 -0.265248 -7.26831 0 0 0 160 16 
479 2 2.18308 -0.805185 -7.18167 0 0 0 160 1.008 
480 2 3.68409 -0.567112 -6.58363 0 0 0 160 1.008 
626 2 4.1514 -1.66468 -4.34389 0 0 0 209 1.008 
625 1 4.53816 -1.35279 -5.21188 0 0 0 209 16 
301 1 8.74818 -1.24322 -6.36143 0 0 0 101 16 
302 2 8.76133 -1.12865 -7.35489 0 0 0 101 1.008 
303 2 8.61931 -0.352687 -5.92483 0 0 0 101 1.008 
379 1 6.82382 -2.83589 -5.25758 0 0 0 127 16 
380 2 7.05611 -3.19509 -4.35354 0 0 0 127 1.008 
381 2 7.55505 -2.2314 -5.57408 0 0 0 127 1.008 
601 1 7.19619 -2.34076 -9.04931 0 0 0 201 16 
602 2 7.16226 -3.03827 -9.76527 0 0 0 201 1.008 
603 2 7.1427 -2.78055 -8.15265 0 0 0 201 1.008 
614 2 6.08945 -0.739196 -8.81164 0 0 0 205 1.008 
615 2 4.6849 -0.269478 -8.12318 0 0 0 205 1.008 
627 2 5.44544 -1.75486 -5.33619 0 0 0 209 1.008 
133 1 3.67223 -5.14767 -3.74898 0 0 0 45 16 
135 2 3.02992 -5.67446 -3.19202 0 0 0 45 1.008 
590 2 2.8662 -4.91853 -0.968868 0 0 0 197 1.008 
298 1 6.39779 -4.82612 -2.95032 0 0 0 100 16 
299 2 5.51909 -5.11929 -3.32742 0 0 0 100 1.008 
300 2 6.25581 -4.4309 -2.04262 0 0 0 100 1.008 
499 1 9.14029 -4.41993 -1.29725 0 0 0 167 16 
501 2 8.7282 -4.66456 -2.1751 0 0 0 167 1.008 
134 2 3.43998 -4.17628 -3.69667 0 0 0 45 1.008 
79 1 2.97103 -2.34947 -2.9084 0 0 0 27 16 
80 2 3.03653 -2.89121 -2.07025 0 0 0 27 1.008 
81 2 2.0128 -2.12461 -3.08596 0 0 0 27 1.008 
107 2 3.59518 -0.713022 -2.45571 0 0 0 36 1.008 
139 1 0.266982 -2.12613 -3.48326 0 0 0 47 16 
141 2 0.0954842 -1.42093 -2.79512 0 0 0 47 1.008 
589 1 3.18837 -3.99752 -0.749238 0 0 0 197 16 
591 2 4.18752 -3.99561 -0.704844 0 0 0 197 1.008 
67 1 5.9198 -3.93944 -0.311347 0 0 0 23 16 
69 2 6.48347 -3.17132 -0.00715023 0 0 0 23 1.008 
125 2 7.90177 -1.41885 -0.444962 0 0 0 42 1.008 
286 1 6.51826 -0.526359 -1.14011 0 0 0 96 16 
287 2 5.53426 -0.389266 -1.25514 0 0 0 96 1.008 
500 2 8.67 -3.62246 -0.918917 0 0 0 167 1.008 
50 2 2.78614 -5.27437 3.92578 0 0 0 17 1.008 
217 1 2.40534 -6.32654 2.19656 0 0 0 73 16 
219 2 1.87491 -5.62854 1.71519 0 0 0 73 1.008 
232 1 0.867637 -4.2656 0.87915 0 0 0 78 16 
234 2 1.62501 -3.87207 0.357796 0 0 0 78 1.008 
8 2 5.72046 -6.28849 1.90465 0 0 0 3 1.008 
70 1 9.58457 -5.87066 0.928101 0 0 0 24 16 
71 2 10.4857 -5.76793 1.34962 0 0 0 24 1.008 
72 2 9.52426 -5.28117 0.122407 0 0 0 24 1.008 
511 1 6.81786 -6.1834 0.679571 0 0 0 171 16 
513 2 7.74138 -6.17978 1.06348 0 0 0 171 1.008 
68 2 6.17972 -4.76361 0.192109 0 0 0 23 1.008 
233 2 0.666425 -3.68254 1.66644 0 0 0 78 1.008 
449 2 1.51061 -3.30658 4.03449 0 0 0 150 1.008 
223 1 0.880262 -0.437621 2.31344 0 0 0 75 16 
225 2 1.49724 -0.0496674 1.62853 0 0 0 75 1.008 
448 1 1.02462 -2.97007 3.22773 0 0 0 150 16 
450 2 1.14134 -1.97926 3.15743 0 0 0 150 1.008 
124 1 8.22834 -2.16894 0.130361 0 0 0 42 16 
126 2 8.51742 -1.80753 1.01698 0 0 0 42 1.008 
49 1 2.79252 -4.74517 4.77442 0 0 0 17 16 
51 2 3.49308 -5.10868 5.38871 0 0 0 17 1.008 
472 1 0.141959 -5.64863 10.3411 0 0 0 158 16 
473 2 0.944591 -6.12713 10.6976 0 0 0 158 1.008 
31 1 4.95539 -5.81319 12.0591 0 0 0 11 16 
32 2 4.72176 -4.84087 12.0423 0 0 0 11 1.008 
158 2 4.98841 -6.33689 10.2127 0 0 0 53 1.008 
159 2 6.03113 -6.18167 8.96533 0 0 0 53 1.008 
444 2 8.11504 -6.18435 8.00566 0 0 0 148 1.008 
517 1 4.44149 -6.17261 6.66834 0 0 0 173 16 
442 1 7.68353 -5.58365 8.67889 0 0 0 148 16 
443 2 8.38439 -5.03118 9.13038 0 0 0 148 1.008 
52 1 3.14669 -0.827601 9.68984 0 0 0 18 16 
54 2 2.58821 -1.37458 10.3137 0 0 0 18 1.008 
116 2 2.9242 -1.16113 8.06558 0 0 0 39 1.008 
117 2 3.40649 -0.689279 6.57826 0 0 0 39 1.008 
222 2 0.147051 -1.49649 9.40779 0 0 0 74 1.008 
327 2 1.38497 -0.294354 6.80143 0 0 0 109 1.008 
457 1 1.26407 -3.38668 6.54195 0 0 0 153 16 
458 2 1.66051 -4.07313 5.93211 0 0 0 153 1.008 
459 2 1.82855 -2.56121 6.52645 0 0 0 153 1.008 
502 1 0.924629 -3.02791 9.36389 0 0 0 168 16 
503 2 0.852146 -3.90726 9.83481 0 0 0 168 1.008 
504 2 0.85395 -3.17163 8.37665 0 0 0 168 1.008 
115 1 2.81872 -1.32101 7.08395 0 0 0 39 16 
10 1 2.35781 2.07457 -5.05427 0 0 0 4 16 
11 2 1.55224 1.82678 -5.59273 0 0 0 4 1.008 
151 1 0.0311047 1.16411 -6.50532 0 0 0 51 16 
153 2 0.320993 0.221905 -6.33655 0 0 0 51 1.008 
190 1 3.15759 2.37473 -7.86919 0 0 0 64 16 
191 2 3.01059 1.40488 -7.67411 0 0 0 64 1.008 
192 2 3.94375 2.47668 -8.47898 0 0 0 64 1.008 
370 1 0.196078 1.78806 -11.6327 0 0 0 124 16 
371 2 1.10033 2.17499 -11.4513 0 0 0 124 1.008 
12 2 3.09337 2.36216 -5.66787 0 0 0 4 1.008 
264 2 2.3999 3.92252 -7.89355 0 0 0 88 1.008 
469 1 2.72322 2.61285 -10.7669 0 0 0 157 16 
471 2 2.66548 2.48476 -9.77663 0 0 0 157 1.008 
470 2 3.67769 2.75538 -11.0295 0 0 0 157 1.008 
226 1 8.45216 1.21392 -5.04348 0 0 0 76 16 
227 2 7.50101 1.33552 -5.32777 0 0 0 76 1.008 
228 2 8.6115 1.71183 -4.19085 0 0 0 76 1.008 
586 1 10.1797 2.54389 -6.83269 0 0 0 196 16 
587 2 10.8972 1.85236 -6.74713 0 0 0 196 1.008 
588 2 9.44921 2.34909 -6.17798 0 0 0 196 1.008 
613 1 5.56698 0.0443415 -8.47493 0 0 0 205 16 
619 1 5.95719 1.04326 -5.73415 0 0 0 207 16 
620 2 5.91782 0.810861 -6.70611 0 0 0 207 1.008 
621 2 5.16977 0.644417 -5.26387 0 0 0 207 1.008 
640 1 5.35646 2.34759 -9.63694 0 0 0 214 16 
641 2 6.11327 2.79172 -10.1168 0 0 0 214 1.008 
642 2 5.69776 1.54602 -9.14574 0 0 0 214 1.008 
434 2 10.3359 4.3242 -7.21096 0 0 0 145 1.008 
262 1 1.97005 4.80999 -8.0606 0 0 0 88 16 
263 2 1.68311 4.86665 -9.01702 0 0 0 88 1.008 
345 2 1.51396 6.24787 -7.13682 0 0 0 115 1.008 
131 2 11.7636 6.04463 -7.30949 0 0 0 44 1.008 
433 1 10.2286 5.28014 -7.48475 0 0 0 145 16 
435 2 9.60742 5.33529 -8.26663 0 0 0 145 1.008 
583 1 10.1541 6.3172 -4.85229 0 0 0 195 16 
584 2 10.284 5.88534 -5.74498 0 0 0 195 1.008 
106 1 3.86979 0.00550454 -1.81651 0 0 0 36 16 
108 2 3.46676 0.875811 -2.10007 0 0 0 36 1.008 
242 2 2.96772 0.319567 -0.194456 0 0 0 81 1.008 
243 2 2.23058 1.73322 -0.548823 0 0 0 81 1.008 
451 1 2.04023 2.31473 -2.38305 0 0 0 151 16 
453 2 1.05376 2.47122 -2.33156 0 0 0 151 1.008 
468 2 0.816008 0.0680807 -1.11156 0 0 0 156 1.008 
452 2 2.31681 2.2431 -3.34151 0 0 0 151 1.008 
288 2 6.93818 0.323421 -0.821015 0 0 0 96 1.008 
316 1 7.70534 1.78904 -0.422222 0 0 0 106 16 
317 2 7.87542 2.26051 -1.28771 0 0 0 106 1.008 
439 1 7.52021 2.91309 -2.88026 0 0 0 147 16 
440 2 7.73665 3.85884 -3.12316 0 0 0 147 1.008 
441 2 6.6713 2.63874 -3.33231 0 0 0 147 1.008 
28 1 7.51132 5.42145 -4.04658 0 0 0 10 16 
29 2 8.35513 5.94989 -4.14155 0 0 0 10 1.008 
30 2 6.72394 6.02541 -4.17123 0 0 0 10 1.008 
103 1 1.53262 2.70752 2.34222 0 0 0 35 16 
104 2 1.58456 2.14606 1.51618 0 0 0 35 1.008 
105 2 0.924832 2.26992 3.00507 0 0 0 35 1.008 
241 1 2.27736 0.978176 0.105396 0 0 0 81 16 
239 2 2.45259 3.52628 3.60868 0 0 0 80 1.008 
540 2 0.602345 4.38687 1.71592 0 0 0 180 1.008 
252 2 0.317826 0.406902 3.61635 0 0 0 84 1.008 
127 1 7.67227 1.87142 3.3679 0 0 0 43 16 
128 2 7.49709 0.901704 3.19688 0 0 0 43 1.008 
318 2 7.61765 2.46206 0.312381 0 0 0 106 1.008 
644 2 6.31622 2.88561 3.74344 0 0 0 215 1.008 
129 2 8.34709 1.96418 4.10022 0 0 0 43 1.008 
462 2 3.74861 5.31645 2.45784 0 0 0 154 1.008 
460 1 4.40212 6.06331 2.33374 0 0 0 154 16 
53 2 3.19121 0.114856 10.0216 0 0 0 18 1.008 
109 1 2.23855 2.52873 6.41284 0 0 0 37 16 
110 2 2.17202 3.09991 5.59455 0 0 0 37 1.008 
111 2 1.45337 1.91051 6.45259 0 0 0 37 1.008 
165 2 3.61675 1.43159 6.19627 0 0 0 55 1.008 
238 1 2.87907 4.13759 4.27554 0 0 0 80 16 
304 1 3.42284 4.16909 8.32588 0 0 0 102 16 
305 2 3.07953 3.67315 7.52811 0 0 0 102 1.008 
325 1 0.594668 0.318235 6.78053 0 0 0 109 16 
326 2 0.0627036 0.204831 7.61984 0 0 0 109 1.008 
463 1 0.59117 1.14368 11.1135 0 0 0 155 16 
464 2 1.49853 1.47752 10.8575 0 0 0 155 1.008 
465 2 0.410882 1.3692 12.0711 0 0 0 155 1.008 
388 1 3.32135 1.7664 10.8641 0 0 0 130 16 
389 2 3.35062 2.17996 11.7743 0 0 0 130 1.008 
240 2 3.86158 3.95478 4.31475 0 0 0 80 1.008 
643 1 5.74319 3.44878 4.33905 0 0 0 215 16 
163 1 4.22923 0.652002 6.06438 0 0 0 55 16 
118 1 6.61516 2.09918 6.59323 0 0 0 40 16 
119 2 6.31722 2.82847 5.97708 0 0 0 40 1.008 
120 2 7.56392 1.85728 6.38925 0 0 0 40 1.008 
164 2 5.14564 0.88976 6.38678 0 0 0 55 1.008 
283 1 9.30032 2.37373 5.64606 0 0 0 95 16 
284 2 10.2551 2.27697 5.92782 0 0 0 95 1.008 
285 2 9.03232 3.33571 5.70124 0 0 0 95 1.008 
306 2 4.15708 3.64277 8.75502 0 0 0 102 1.008 
367 1 5.46333 2.6012 9.19458 0 0 0 123 16 
368 2 6.06275 3.3785 9.38636 0 0 0 123 1.008 
369 2 5.93643 1.95533 8.59515 0 0 0 123 1.008 
390 2 4.11785 2.06346 10.3372 0 0 0 130 1.008 
271 1 1.4835 6.03622 8.08084 0 0 0 91 16 
273 2 2.11709 5.26448 8.13782 0 0 0 91 1.008 
629 2 2.05626 6.29057 6.38043 0 0 0 210 1.008 
630 2 2.8934 5.70753 5.10504 0 0 0 210 1.008 
645 2 6.20544 4.31634 4.52325 0 0 0 215 1.008 
382 1 6.55161 6.25876 4.09084 0 0 0 128 16 
599 2 7.86935 5.46118 5.26675 0 0 0 200 1.008 
324 2 4.22287 5.78203 8.6588 0 0 0 108 1.008 
136 1 6.78983 4.94582 9.37289 0 0 0 46 16 
137 2 6.09286 5.66311 9.37665 0 0 0 46 1.008 
138 2 7.66659 5.33441 9.08908 0 0 0 46 1.008 
355 1 9.14513 6.16528 8.32431 0 0 0 119 16 
356 2 10.0941 6.11915 8.01184 0 0 0 119 1.008 
598 1 8.43042 4.93353 5.90476 0 0 0 200 16 
600 2 8.38471 5.35074 6.81258 0 0 0 200 1.008 
561 2 12.3288 8.37357 -4.78773 0 0 0 187 1.008 
22 1 1.37695 8.88835 -10.4777 0 0 0 8 16 
23 2 2.01476 8.92119 -9.70806 0 0 0 8 1.008 
24 2 1.83817 9.20532 -11.3066 0 0 0 8 1.008 
333 2 0.795386 7.17328 -5.33401 0 0 0 111 1.008 
343 1 1.2919 7.209 -6.97187 0 0 0 115 16 
344 2 0.56664 7.49578 -7.598 0 0 0 115 1.008 
567 2 0.0806898 8.36806 -9.44266 0 0 0 189 1.008 
526 1 3.3492 8.34129 -8.51581 0 0 0 176 16 
527 2 2.62963 8.05997 -7.88071 0 0 0 176 1.008 
331 1 0.399361 7.1401 -4.41622 0 0 0 111 16 
332 2 0.26808 8.07136 -4.07594 0 0 0 111 1.008 
130 1 12.6469 6.49348 -7.17354 0 0 0 44 16 
349 1 5.67362 8.02326 -7.02189 0 0 0 117 16 
350 2 5.4348 7.64225 -6.12854 0 0 0 117 1.008 
351 2 6.50513 8.57272 -6.93846 0 0 0 117 1.008 
402 2 4.38514 6.9876 -4.32236 0 0 0 134 1.008 
528 2 4.2366 8.29203 -8.05717 0 0 0 176 1.008 
585 2 11.0406 6.42505 -4.40198 0 0 0 195 1.008 
59 2 2.69509 7.98164 -0.189261 0 0 0 20 1.008 
307 1 0.936462 7.67365 -0.706649 0 0 0 103 16 
308 2 1.21758 6.87149 -1.23371 0 0 0 103 1.008 
309 2 0.0189863 7.52505 -0.337278 0 0 0 103 1.008 
400 1 5.3668 7.13303 -4.19803 0 0 0 134 16 
401 2 5.53719 7.49024 -3.27952 0 0 0 134 1.008 
211 1 5.52622 7.72432 -1.54746 0 0 0 71 16 
212 2 4.89954 7.83187 -0.775469 0 0 0 71 1.008 
213 2 6.40653 7.38333 -1.21722 0 0 0 71 1.008 
66 2 2.7444 10.8264 -12.4915 0 0 0 22 1.008 
58 1 3.53884 8.00524 0.347212 0 0 0 20 16 
60 2 3.61341 8.88735 0.812612 0 0 0 20 1.008 
154 1 1.02146 8.99648 1.85793 0 0 0 52 16 
155 2 1.08025 8.7642 0.886917 0 0 0 52 1.008 
156 2 1.89094 9.38734 2.16043 0 0 0 52 1.008 
523 1 3.53785 10.3399 2.15611 0 0 0 175 16 
524 2 4.22618 10.1287 2.85028 0 0 0 175 1.008 
525 2 3.5167 11.3271 1.9971 0 0 0 175 1.008 
383 2 6.00625 6.43021 3.27019 0 0 0 128 1.008 
461 2 4.09864 6.65057 1.5832 0 0 0 154 1.008 
577 1 8.07549 8.85552 3.95879 0 0 0 193 16 
578 2 8.569 8.81793 4.82788 0 0 0 193 1.008 
579 2 7.74128 7.94221 3.72545 0 0 0 193 1.008 
580 1 5.36206 9.44392 3.84318 0 0 0 194 16 
582 2 6.35225 9.48755 3.70942 0 0 0 194 1.008 
94 1 2.24144 8.20101 9.68134 0 0 0 32 16 
95 2 2.07999 9.18802 9.67842 0 0 0 32 1.008 
96 2 1.66039 7.77021 10.372 0 0 0 32 1.008 
167 2 4.28771 7.0364 5.90609 0 0 0 56 1.008 
272 2 1.89659 6.83913 8.51094 0 0 0 91 1.008 
628 1 2.68874 6.52592 5.64228 0 0 0 210 16 
637 1 1.4486 10.8554 9.79692 0 0 0 213 16 
638 2 0.528322 10.5272 9.5833 0 0 0 213 1.008 
639 2 1.80607 11.3744 9.02029 0 0 0 213 1.008 
64 1 2.42684 9.96887 12.4552 0 0 0 22 16 
65 2 2.1484 10.1304 11.5083 0 0 0 22 1.008 
323 2 3.93122 7.30327 9.17662 0 0 0 108 1.008 