ITEM: TIMESTEP
0
ITEM: NUMBER OF ATOMS
648
ITEM: BOX BOUNDS pp pp pp
-12.6713 12.6713
-12.6824 12.6824
-12.6758 12.6758
ITEM: ATOMS id type x y z vx vy vz mol mass 
246 2 -10.5102 -6.44377 -7.83866 -0.00494448 -0.00880346 0.00456985 82 1.008 
277 1 -6.65128 -8.17405 -7.04939 -0.00100134 -0.00121645 -0.00304518 93 16 
278 2 -7.12259 -7.36428 -6.69951 0.0226835 0.00324992 0.0180352 93 1.008 
279 2 -7.12165 -8.99718 -6.73084 -0.00948811 0.00389197 -0.00285004 93 1.008 
281 2 -4.29408 -9.32857 -11.8981 0.00358711 0.0116825 -0.00209004 94 1.008 
562 1 -4.46184 -6.51339 -7.5287 -5.53436e-05 0.00133232 0.00197701 188 16 
563 2 -5.22048 -7.16502 -7.54026 0.01453 -0.0154275 0.00283985 188 1.008 
280 1 -3.42319 -9.3479 -11.4068 0.00404356 -0.00405018 -0.00382089 94 16 
564 2 -4.02461 -6.52673 -6.6293 0.0263579 -0.0180243 -0.0113274 188 1.008 
214 1 -2.85804 -7.07365 -9.70747 0.00136397 0.00472406 0.00202367 72 16 
215 2 -2.11813 -7.69753 -9.45532 -0.0261867 -0.0307813 -0.00574437 72 1.008 
216 2 -3.35602 -6.79753 -8.88525 -0.0017844 -0.00288804 0.00248304 72 1.008 
282 2 -3.28791 -8.47714 -10.9337 0.0169186 -0.0095784 0.00235616 94 1.008 
292 1 -1.52427 -9.46135 -9.21833 0.00320161 -0.00471202 -0.00336489 98 16 
293 2 -1.01313 -10.2695 -8.9253 0.00157178 -0.00783056 -0.0096423 98 1.008 
294 2 -2.00923 -9.66404 -10.0692 -0.0136217 -0.0036512 0.00616618 98 1.008 
488 2 -6.44286 -6.6123 -2.71041 -0.00366213 -0.00479549 0.000592846 163 1.008 
572 2 -3.40422 -6.65291 -4.16878 -0.0219539 -0.00372473 -0.00269507 191 1.008 
148 1 -1.27235 -8.8516 -2.45097 0.00130892 -0.00550599 -0.0005431 50 16 
149 2 -1.24416 -9.77789 -2.82708 0.00906591 -0.00484962 -0.00117156 50 1.008 
150 2 -1.38301 -8.89819 -1.45806 -0.0103145 -0.00699065 -0.00208043 50 1.008 
378 2 -0.157074 -7.38883 -2.77621 0.00616534 -0.00644866 -0.00792969 126 1.008 
631 1 -3.2974 -6.74792 -2.31812 -0.000597514 -0.00299798 -0.00124381 211 16 
632 2 -2.78653 -7.59781 -2.44841 -0.00151748 -0.00341019 -0.000980281 211 1.008 
633 2 -3.50457 -6.62905 -1.34692 0.00721655 0.00191214 -0.000344255 211 1.008 
259 1 -5.04069 -7.48492 3.38767 -0.000874765 0.00191605 -0.00234351 87 16 
260 2 -4.64174 -6.58646 3.20357 0.00476855 0.000187501 0.00228176 87 1.008 
261 2 -4.4961 -8.19072 2.93428 -0.0082212 0.00131486 -0.00986639 87 1.008 
340 1 -4.62919 -9.62747 1.67227 0.00642748 -0.00274023 0.00281484 114 16 
341 2 -5.62832 -9.58479 1.68646 0.00603592 -0.0130479 -0.00462388 114 1.008 
342 2 -4.31939 -10.38 2.25361 0.00977376 -0.000162515 0.00410712 114 1.008 
415 1 -7.343 -8.98775 2.51252 0.00368461 -0.00101215 0.000870166 139 16 
416 2 -6.73864 -8.22785 2.75246 0.00215867 0.00200838 -0.00551347 139 1.008 
417 2 -8.15449 -8.96557 3.0967 -0.00627648 0.0148629 -0.0138691 139 1.008 
346 1 -0.749986 -6.56206 1.41746 0.00318991 -0.000340843 0.00231182 116 16 
347 2 -0.415062 -6.91331 2.29194 0.00283344 0.00709827 0.00525718 116 1.008 
490 1 -2.2111 -8.56549 0.0382812 0.00247202 1.20977e-05 -0.00241723 164 16 
491 2 -3.03961 -8.87451 0.505568 0.00122033 0.00581105 -0.00113533 164 1.008 
492 2 -1.74683 -7.88101 0.60061 -0.00539437 0.0153034 -0.0148455 164 1.008 
43 1 -7.94774 -9.80148 6.91754 -0.00192225 0.00164896 -0.00186934 15 16 
44 2 -7.24745 -9.87473 6.20726 0.000783838 -0.0161629 0.00287284 15 1.008 
45 2 -7.93936 -8.87735 7.2999 0.0154819 0.00283949 -0.00553194 15 1.008 
76 1 -8.18356 -7.14275 8.10131 -0.00131084 0.000550122 -0.000969921 26 16 
77 2 -8.67452 -7.53801 8.87784 -0.0021534 -0.00497983 -0.00451378 26 1.008 
78 2 -8.82387 -6.63272 7.52672 -0.00323158 -0.00791105 -0.00605083 26 1.008 
122 2 -10.9233 -6.46759 5.83752 0.000762426 0.0131342 -0.00988007 41 1.008 
334 1 -9.16042 -8.67844 4.7222 0.0015431 -0.00194976 -0.000470373 112 16 
335 2 -9.43418 -7.83651 5.18748 0.00556436 -0.00428793 0.00579672 112 1.008 
336 2 -9.06905 -9.41513 5.39243 -0.00700351 -0.00857413 -0.00680555 112 1.008 
610 1 -5.92431 -9.51161 5.04791 -0.00227322 0.000646961 -0.00115715 204 16 
611 2 -6.59439 -9.78225 4.35652 -0.00463313 0.00515706 -0.000418353 204 1.008 
612 2 -5.65211 -8.56155 4.89444 -0.0205825 0.00889257 0.0182767 204 1.008 
90 2 -1.48201 -9.84979 4.81654 -0.00181847 -0.000877604 0.00215268 30 1.008 
290 2 -3.1915 -9.53293 6.85763 -0.000637044 -0.0101933 0.00232181 97 1.008 
291 2 -4.19719 -9.77254 5.59331 0.00132132 -0.0106278 0.00116902 97 1.008 
73 1 -3.2817 -11.3361 10.188 -0.000784315 0.00357471 -0.00102718 25 16 
74 2 -3.39122 -11.2753 11.1803 -0.00984057 0.00930802 -0.00253158 25 1.008 
75 2 -2.99776 -12.2625 9.94016 -0.00925604 -0.000715919 0.00595707 25 1.008 
88 1 -0.502616 -9.67133 4.91254 -0.00165926 -0.0017133 0.000465644 30 16 
89 2 -0.249752 -9.71089 5.87937 0.000173642 -0.0032482 -0.000236877 30 1.008 
146 2 -2.95924 -6.39006 7.65651 0.00283379 -0.00308843 -0.000502419 49 1.008 
202 1 -2.74385 -9.2248 8.4563 0.000531119 -0.00349157 -0.00359035 68 16 
203 2 -2.96388 -9.924 9.13674 0.0230967 0.00245357 0.00960821 68 1.008 
204 2 -3.01419 -8.3262 8.80228 -0.00636942 -0.00298464 -0.0107486 68 1.008 
265 1 -2.24272 -6.78538 6.01739 0.00149134 -0.00202858 -0.00103789 89 16 
266 2 -2.56743 -7.70456 5.79389 0.001874 -9.52524e-05 -0.00884745 89 1.008 
289 1 -3.24713 -9.61347 5.8623 -0.00103612 0.00186743 0.00152774 97 16 
505 1 -0.138367 -6.71193 7.80043 0.000345084 0.000708483 0.00189249 169 16 
506 2 -0.936779 -6.55809 7.21807 0.00199022 -0.0154045 -0.00432986 169 1.008 
520 1 -0.0428687 -9.59129 7.69486 -0.000861051 -0.00292553 -0.00226825 174 16 
521 2 -0.877985 -9.8142 8.19802 0.0150491 -0.00840499 0.0214658 174 1.008 
244 1 -10.1877 -5.68274 -7.27552 -0.00387944 -0.00214299 -0.00531644 82 16 
245 2 -9.40398 -5.98032 -6.73008 0.0133199 0.0118573 -0.0226552 82 1.008 
403 1 -5.95094 -4.2571 -6.85396 0.00299227 0.00173515 -0.00178615 135 16 
404 2 -5.34905 -4.84525 -7.39442 0.000866029 0.000625348 -0.00266121 135 1.008 
406 1 -7.83446 -6.01451 -5.7825 -0.00215586 -0.00127018 -0.00374788 136 16 
407 2 -7.39372 -5.17649 -6.10462 -0.00158833 -0.0053759 -0.0131577 136 1.008 
408 2 -7.59217 -6.17174 -4.82498 0.00769637 0.00271356 -0.00573951 136 1.008 
571 1 -3.30715 -6.25516 -5.08127 0.00114514 -0.00357094 4.00218e-06 191 16 
573 2 -3.24974 -5.25947 -5.00652 0.00112692 -0.00386106 0.00182947 191 1.008 
40 1 -1.99919 -5.27178 -11.6538 0.000628866 -0.00324028 -0.00270674 14 16 
41 2 -1.51546 -5.81735 -12.3384 0.000631276 4.52145e-05 -0.00509893 14 1.008 
42 2 -2.38566 -5.87692 -10.9576 -0.00787133 -0.00717508 -0.0110675 14 1.008 
608 2 -1.23196 -4.19705 -6.98333 -0.00760156 -0.00382766 -0.0103997 203 1.008 
405 2 -5.42045 -3.50243 -6.46754 0.00190489 0.00960601 -0.0160491 135 1.008 
295 1 -8.7296 -3.26151 -6.77171 -0.00170132 -0.000400372 -0.003181 99 16 
296 2 -9.37395 -4.02177 -6.85602 0.00373136 -0.00579942 0.00569796 99 1.008 
297 2 -7.80251 -3.58826 -6.95614 0.00102805 0.00298714 0.00534158 99 1.008 
319 1 -5.02805 -1.7953 -5.3913 -0.000349984 0.00229927 0.00378926 107 16 
320 2 -6.0072 -1.60089 -5.33003 -0.00365674 -0.00814932 -0.0183375 107 1.008 
321 2 -4.57697 -1.07304 -5.91585 -0.00301824 -0.0153837 -0.0225962 107 1.008 
541 1 -7.59713 -0.739438 -6.1764 -0.00163501 0.0028525 -0.00162658 181 16 
542 2 -7.96948 -1.65465 -6.33137 0.0155874 -0.00663569 0.0138196 181 1.008 
543 2 -7.60183 -0.227732 -7.03571 -0.022765 -0.0075405 -0.00751305 181 1.008 
475 1 -1.8209 -3.11856 -9.8385 -0.00134638 -0.00507283 -0.00328955 159 16 
477 2 -1.66251 -3.83536 -10.5178 -0.011301 0.0133391 -0.024803 159 1.008 
607 1 -1.11684 -3.23216 -7.22001 -7.24459e-05 -0.00213193 0.00078829 203 16 
609 2 -1.26312 -3.11 -8.20182 -0.0352303 0.0161135 0.00848204 203 1.008 
414 2 -3.32097 -0.129427 -7.44972 0.00785328 -0.00779706 0.00779852 138 1.008 
427 1 -3.43421 -1.07275 -9.02777 -0.00372714 0.00166731 0.000519238 143 16 
428 2 -2.95936 -1.9135 -9.28843 0.00684928 0.00660469 0.00443599 143 1.008 
429 2 -3.57827 -0.506012 -9.83914 -0.0233894 -0.0103535 -0.00419238 143 1.008 
13 1 -2.84449 -3.43094 -5.04227 0.000222929 0.0011964 0.000608596 5 16 
14 2 -2.36833 -3.23011 -5.89855 -0.00743105 -0.00633791 -0.00524629 5 1.008 
15 2 -3.57423 -2.76161 -4.90172 -0.0103041 -0.00872055 -0.008022 5 1.008 
476 2 -1.41872 -2.26079 -10.1591 -0.0135016 0.00548357 0.0101369 159 1.008 
493 1 -0.845538 -0.77723 -10.7344 0.00461164 -0.00329622 -0.00261967 165 16 
494 2 -0.834425 -0.0714261 -10.0259 0.00534642 0.00152843 -0.007655 165 1.008 
495 2 -0.603718 -0.369414 -11.615 -0.0181592 -0.00514773 -0.00956385 165 1.008 
487 1 -7.24043 -6.18493 -3.13645 0.00106953 0.00166208 -0.00142905 163 16 
489 2 -7.71407 -5.61725 -2.46289 -0.000672946 -0.0011039 -0.000552056 163 1.008 
177 2 -2.23729 -5.42963 -2.84247 -0.00204352 0.0013903 0.000573923 59 1.008 
377 2 -0.147436 -5.77918 -3.0524 -0.00190418 -0.00673642 -0.0083844 126 1.008 
176 2 -1.91039 -4.11215 -3.75063 0.00818069 -0.00354049 -0.00245198 59 1.008 
175 1 -1.6028 -4.66861 -2.9786 0.00183834 -0.00196934 0.00101653 59 16 
553 1 -1.53971 -3.87918 -0.370148 0.00141269 0.000966086 -0.00152899 185 16 
554 2 -1.48637 -4.04773 -1.35454 -0.00630563 -0.00404587 -0.00092812 185 1.008 
140 2 -0.352046 -2.89699 -3.33207 -0.00191533 -0.00154475 -0.0123178 47 1.008 
425 2 -1.20063 -0.314996 -0.158604 -0.00228347 -0.0100985 -0.00491257 142 1.008 
466 1 -0.0160201 -0.0603934 -1.65147 0.00130628 -0.000859256 -0.00329936 156 16 
362 2 -4.58716 -4.38292 3.14377 0.00122678 -0.00535938 0.00213516 121 1.008 
361 1 -3.89815 -5.07352 2.92332 0.00174739 -0.00389198 -0.000135608 121 16 
363 2 -2.98685 -4.70753 3.11266 0.00139355 -0.00296665 -0.00103589 121 1.008 
348 2 -0.289893 -5.69946 1.20646 -0.00351883 0.00240965 -0.000337275 116 1.008 
358 1 -3.53203 -5.6415 0.24651 0.00268415 -0.00130136 0.000120168 120 16 
359 2 -3.80601 -5.58564 1.20676 -0.00309887 0.00187896 -0.00187283 120 1.008 
360 2 -2.78002 -5.00435 0.0768083 -0.00697603 0.00955092 -0.0010867 120 1.008 
174 2 -4.42704 -2.55311 0.613464 -0.00350662 0.0107207 -0.00219491 58 1.008 
544 1 -5.54917 -3.06793 3.68332 -0.00186448 0.00476706 -0.000529364 182 16 
546 2 -4.85873 -2.3527 3.79297 -0.00876945 0.0129447 -0.0118798 182 1.008 
210 2 -0.632645 -3.58826 3.44862 0.00337352 -0.00524855 4.84318e-05 70 1.008 
555 2 -0.651076 -4.06655 0.048779 0.0043975 0.00258048 -0.00751186 185 1.008 
172 1 -3.49259 -2.2456 0.793756 0.000107796 -0.00223386 0.000323649 58 16 
533 2 -3.36727 -0.801087 3.19994 0.0108696 -0.00288051 -0.00180795 178 1.008 
173 2 -2.84535 -2.92298 0.443722 -0.00832922 -0.00918493 -0.00139044 58 1.008 
224 2 -0.046826 -0.480671 1.94071 0.00410692 -0.00243566 -0.00891647 75 1.008 
424 1 -1.31665 -0.54856 0.806934 0.00207219 -0.000121301 -0.00213057 142 16 
426 2 -2.18258 -1.03341 0.9309 -0.00504827 0.0158259 0.00932741 142 1.008 
532 1 -3.33466 -1.30623 4.06252 0.00478277 0.00137663 0.000741177 178 16 
534 2 -2.7524 -2.11226 3.95501 -0.00801011 -0.00811824 0.00394497 178 1.008 
208 1 -1.57132 -3.74724 3.75505 0.00274472 0.0020079 0.00138883 70 16 
121 1 -10.0156 -6.29761 6.22164 -0.000342478 0.00252206 -0.00297701 41 16 
123 2 -9.88199 -5.31333 6.33833 0.0104296 0.000834459 -0.00244939 41 1.008 
184 1 -6.08927 -5.36935 8.04817 -0.0020007 -0.00205344 -0.00201087 62 16 
185 2 -6.80113 -6.07043 8.00329 0.0114143 -0.0148246 -0.0118867 62 1.008 
186 2 -5.24777 -5.77136 8.40947 -0.000961804 0.0141384 0.0132189 62 1.008 
97 1 -2.20434 -4.19813 9.91615 0.00225001 -0.00234643 0.00205686 33 16 
98 2 -1.27133 -4.55487 9.9664 0.00133341 -0.00346087 0.00807112 33 1.008 
145 1 -3.41977 -6.2846 8.53802 0.00407177 0.000993232 -0.000520549 49 16 
147 2 -3.01137 -5.52087 9.03823 -0.0126818 0.0196928 -0.015718 49 1.008 
267 2 -2.61754 -6.13061 5.36084 0.022249 -0.000265089 -0.0108698 89 1.008 
474 2 -0.0452703 -5.96013 9.40936 -0.0154937 0.00681086 0.00277335 158 1.008 
545 2 -6.14714 -3.07972 4.48492 -4.15414e-05 0.010033 0.000718025 182 1.008 
454 1 -7.09778 -3.17368 9.78255 0.00481383 -0.00127095 -0.00415572 152 16 
455 2 -6.63165 -2.9223 10.631 -0.00815971 -0.0040892 0.00363055 152 1.008 
456 2 -6.60313 -3.92147 9.33937 0.0117524 0.000616647 0.00073862 152 1.008 
196 1 -6.65743 -3.33033 6.41143 0.000704634 0.000569508 0.00261896 66 16 
197 2 -6.36369 -4.19687 6.81529 0.00582554 0.004507 0.00694969 66 1.008 
198 2 -5.86834 -2.72365 6.31368 0.00137869 -0.00473902 -0.023787 66 1.008 
253 1 -7.98795 -1.31544 7.85872 -0.00104113 -0.00105345 0.00540673 85 16 
254 2 -7.5128 -2.03001 7.34502 0.0136928 0.00909757 0.00520123 85 1.008 
255 2 -7.93043 -1.51406 8.83725 0.00549209 0.00125533 0.00533852 85 1.008 
364 1 -9.52823 -3.58989 6.27264 -0.000850719 0.00212638 -0.00211836 122 16 
365 2 -8.55139 -3.44295 6.11621 -0.00388245 0.00640264 -0.0160813 122 1.008 
366 2 -9.91848 -2.78614 6.72205 -0.00105865 0.00653677 -0.0105315 122 1.008 
436 1 -4.56069 -1.57764 6.44788 0.00151237 0.000529452 -0.0013691 146 16 
209 2 -1.63399 -3.57822 4.73881 0.00801302 -0.00848157 0.00334848 70 1.008 
99 2 -2.65706 -4.32322 10.7991 0.00364795 0.0179517 0.00545604 33 1.008 
437 2 -3.96648 -1.53896 7.25144 0.00876524 -0.00462806 -0.00668569 146 1.008 
438 2 -4.01291 -1.44575 5.62156 -0.00794528 0.0181116 -0.00463073 146 1.008 
193 1 -1.50922 -3.53253 6.4289 0.00141849 -0.000646052 0.000115966 65 16 
194 2 -0.519888 -3.41964 6.52248 0.00118506 -0.00106104 0.0014314 65 1.008 
195 2 -1.9771 -2.87754 7.02249 0.00100805 -0.00688763 0.00641418 65 1.008 
220 1 -0.284184 -0.612415 9.22689 0.000241318 -0.00256303 0.00132856 74 16 
385 1 -2.66652 -1.88068 8.36936 -0.00149953 0.00251622 0.00491601 129 16 
386 2 -2.05335 -1.18273 8.7397 -0.00717489 0.00669046 0.00604091 129 1.008 
387 2 -2.56636 -2.72544 8.89531 0.00502553 0.00264423 0.00359002 129 1.008 
82 1 -7.56707 1.8145 -4.75675 0.000510003 -0.000112946 0.00141771 28 16 
84 2 -7.14275 0.910255 -4.70604 0.000761638 -0.000832217 -0.0168038 28 1.008 
413 2 -4.14528 1.13382 -6.82356 -0.0110101 -0.0105459 -0.012134 138 1.008 
421 1 -7.83767 2.07255 -7.541 0.00289927 0.00343113 -0.00278989 141 16 
422 2 -7.7343 1.86886 -6.56729 -0.00437486 -0.022121 -0.0074886 141 1.008 
423 2 -8.80985 2.10293 -7.77384 0.00515186 -0.00992679 -0.0132781 141 1.008 
514 1 -5.15966 2.66782 -7.24636 -0.000172652 0.00230947 0.00271736 172 16 
515 2 -5.93244 2.35728 -7.80014 0.00889183 -0.0142618 -0.000387878 172 1.008 
516 2 -5.49903 3.06548 -6.39373 -0.0122003 -0.00509855 0.00122498 172 1.008 
597 2 -6.26628 3.30325 -4.50299 -0.0160064 0.0153544 -0.00158926 199 1.008 
595 1 -5.60552 3.93164 -4.91384 -0.00410345 0.00242962 -0.0018149 199 16 
412 1 -3.68482 0.272257 -6.60916 -0.000279425 -0.00134865 0.00101523 138 16 
430 1 -2.88884 4.12587 -5.40187 -0.000345469 -0.00101293 0.000450769 144 16 
432 2 -3.85161 4.06555 -5.13787 -0.00221853 0.00694481 -0.00518004 144 1.008 
34 1 -0.973086 1.62678 -9.13392 0.000180506 0.00133632 -0.000871889 12 16 
35 2 -0.402354 1.40781 -8.34234 -0.0146721 -0.0188569 0.004067 12 1.008 
36 2 -1.74525 2.1915 -8.84215 -0.00926513 -0.0124728 0.000386388 12 1.008 
46 1 -2.72898 3.68971 -8.07295 -0.00248522 0.00441996 0.0014086 16 16 
47 2 -3.66746 3.43865 -7.83524 -0.00122272 0.00115273 0.00228798 16 1.008 
152 2 -0.648964 1.43107 -5.82229 0.00449603 0.00756415 0.00433446 51 1.008 
372 2 -0.345201 1.7972 -10.7917 0.00315965 -0.0178137 0.00535523 124 1.008 
394 1 -2.09851 1.60918 -4.84175 0.000178164 -0.000201311 0.00341395 132 16 
395 2 -2.81079 0.966636 -5.12473 0.000930492 0.00388741 -0.00717287 132 1.008 
396 2 -2.37932 2.54095 -5.07245 0.0124911 0.000494537 -0.0080925 132 1.008 
431 2 -2.80945 4.0391 -6.39507 0.00564539 -0.0124802 0.00208618 144 1.008 
48 2 -2.7417 4.44896 -8.72384 -0.00584924 0.00205079 -0.00105277 16 1.008 
170 2 -1.64354 4.68812 -4.27776 0.0171971 -0.00114576 -0.0107011 57 1.008 
83 2 -8.02462 2.01707 -3.89079 0.0044382 -0.0157953 0.00697941 28 1.008 
57 2 -6.94353 1.98182 -0.090535 -0.00537418 0.00255543 -0.0101527 19 1.008 
93 2 -5.21878 3.23905 -0.381552 0.0159372 -0.0129865 -0.02811 31 1.008 
247 1 -9.09286 2.25619 -2.45508 -0.00220087 0.00395459 -0.00335816 83 16 
248 2 -8.68634 2.19136 -1.54359 0.0107877 0.0054832 -0.00920679 83 1.008 
249 2 -9.91523 2.82389 -2.41371 -0.00508673 -0.00137756 0.00869355 83 1.008 
313 1 -0.659279 2.50228 -2.55046 -0.00350503 2.7483e-06 0.00250193 105 16 
314 2 -0.682154 3.4841 -2.73961 -0.0226697 -0.00119361 -0.00056783 105 1.008 
315 2 -1.22464 2.0205 -3.22019 0.0212591 -0.0149378 -0.00742315 105 1.008 
467 2 -0.327319 0.823973 -1.99971 0.00391417 0.00517158 0.0101416 156 1.008 
623 2 -1.58123 2.84855 -0.279796 0.00645985 0.000710965 0.00842902 208 1.008 
596 2 -5.51535 4.74413 -4.33763 0.0177219 -0.00292665 0.00209 199 1.008 
27 2 -6.9086 5.0654 -0.263316 0.00226 -0.0031055 0.0120838 9 1.008 
142 1 -5.39422 4.78009 -1.22016 -0.00261319 0.00235552 0.000977756 48 16 
143 2 -4.40864 4.95013 -1.22282 -0.00403198 0.00966363 0.00207163 48 1.008 
144 2 -5.82281 5.29191 -1.96489 -0.00456158 -0.00656398 -0.00382675 48 1.008 
328 1 -10.5466 5.77367 -3.40932 -0.00108476 -0.00252879 0.00342498 110 16 
329 2 -9.88891 5.53847 -4.12511 -0.0197353 -0.0156685 -0.00916991 110 1.008 
536 2 -9.99588 6.26618 -1.71514 -0.000698462 0.00719962 -0.000134342 179 1.008 
537 2 -9.05463 5.97894 -0.411714 0.0054134 0.0005832 -0.0063236 179 1.008 
398 2 -4.24704 6.28241 -2.78588 0.00195637 -0.0129927 -0.0130007 133 1.008 
169 1 -1.03901 5.03687 -3.56139 0.00568869 0.00192774 -0.00269826 57 16 
171 2 -0.413283 5.7119 -3.95264 0.00515894 0.00746267 0.00642442 57 1.008 
418 1 -2.91502 5.80552 -1.6194 0.000225507 0.00210321 0.00209044 140 16 
419 2 -2.21295 5.42672 -2.22263 0.00207025 -0.0165044 0.0161527 140 1.008 
420 2 -2.47766 6.26357 -0.845324 -0.00318045 -0.0147628 0.0137882 140 1.008 
26 2 -7.99086 3.99194 0.323 -0.00771872 0.00204557 0.002381 9 1.008 
55 1 -7.90741 2.15052 0.116251 -0.00326864 0.000830475 0.000377605 19 16 
56 2 -8.23551 1.46078 0.76192 0.00645463 0.00342082 0.00783678 19 1.008 
91 1 -5.1026 2.34018 0.0413086 -0.000361916 -0.00200148 -0.000678773 31 16 
269 2 -7.14104 1.91135 3.72915 -0.00337498 0.00740056 0.00371971 90 1.008 
373 1 -5.71444 2.15468 2.81564 -0.00113832 0.00263187 0.000911267 125 16 
374 2 -5.52671 2.35103 1.8531 0.0250209 -0.0114829 0.00332001 125 1.008 
375 2 -5.34716 2.8912 3.3839 0.010466 -0.00445103 0.00228446 125 1.008 
92 2 -4.12909 2.16416 0.188128 -0.00432616 -0.0108307 0.0140158 31 1.008 
622 1 -2.25439 2.36443 0.279448 0.000785732 -0.00269338 -0.00163616 208 16 
624 2 -1.9921 2.42382 1.24275 0.000434354 -0.0240527 -0.000379932 208 1.008 
539 2 -0.903884 3.94691 2.16877 0.0079114 0.00637471 0.0145303 180 1.008 
160 1 -2.03639 2.75969 2.95035 -0.00156783 0.000869444 -0.0019137 54 16 
161 2 -2.82756 3.09059 3.46498 0.00302611 0.0133759 -0.00318082 54 1.008 
162 2 -1.44605 2.22411 3.55444 -3.7244e-05 0.0097271 0.00420672 54 1.008 
250 1 -0.0784879 1.12283 4.19138 0.00104948 0.00175841 0.000273967 84 16 
25 1 -7.7576 4.96213 0.255152 -0.00295851 0.000857772 0.00401193 9 16 
258 2 -8.2417 5.04373 4.06528 -0.00250333 -0.00251787 0.00118115 86 1.008 
634 1 -7.90038 6.29899 2.64997 -0.000784923 0.00648738 0.00169815 212 16 
636 2 -7.80785 5.81797 1.778 -0.0243922 -0.014455 0.0109285 212 1.008 
207 2 -4.3297 4.65155 4.5062 -0.0141368 0.000354884 -0.00322787 69 1.008 
200 2 -0.993181 5.95641 0.692299 -0.00670938 -0.00267241 0.0079332 67 1.008 
538 1 -0.37399 4.53398 1.55653 -0.00209123 -0.00197046 -0.00190177 180 16 
268 1 -7.90286 1.7401 4.35412 -0.00204308 0.000142419 0.00311697 90 16 
85 1 -6.43682 0.570811 6.71168 0.0012956 -0.00426406 0.00164313 29 16 
86 2 -7.00805 0.0131639 7.31418 -0.0029908 -0.0150973 -0.0127405 29 1.008 
87 2 -5.58896 0.0807551 6.50859 -0.00175325 -0.00472808 -0.00918101 29 1.008 
206 2 -4.63938 3.37268 5.47365 0.0129116 0.000734334 0.00551905 69 1.008 
270 2 -7.59494 1.15125 5.10159 -0.00018408 -0.00703665 -0.00350914 90 1.008 
574 1 -6.08706 3.30409 6.62084 0.00112517 -0.00217892 -0.00189748 192 16 
575 2 -6.9178 3.57199 6.13259 -3.90171e-05 -0.00819304 -0.00290043 192 1.008 
576 2 -6.20626 2.38791 7.00381 0.0132968 -0.00943778 -0.0159491 192 1.008 
257 2 -8.07886 3.51528 4.61727 0.00674723 -0.00446756 -0.00767359 86 1.008 
205 1 -4.16353 3.67552 4.64773 0.000523102 0.00341176 -0.000459785 69 16 
221 2 -0.103629 0.00883874 9.9896 0.00834423 -0.00293468 -0.000499741 74 1.008 
251 2 -0.00961092 0.854727 5.15245 0.0052856 0.0109763 0.00238578 84 1.008 
256 1 -7.71389 4.44506 4.66801 -0.000524252 -0.00219054 -0.000472129 86 16 
593 2 -5.90528 6.04772 4.93918 0.00060798 0.0132761 0.0104368 198 1.008 
481 1 -6.25454 5.73197 7.92461 -0.00689461 0.00102459 -0.000614714 161 16 
482 2 -7.08749 6.17217 7.58892 -0.0013941 0.00750655 -0.00533416 161 1.008 
483 2 -6.13741 4.84913 7.46947 -0.00897499 0.00216125 -0.00301857 161 1.008 
178 1 -1.13703 5.223 8.15029 0.00202134 -0.000328041 0.00152479 60 16 
179 2 -0.227259 5.62121 8.2687 0.00720116 -0.0080181 -0.0138264 60 1.008 
180 2 -1.06368 4.37366 7.62729 -0.0130486 -0.0047189 0.00686411 60 1.008 
274 1 -2.31102 6.23282 10.4205 -0.000848011 -0.000776221 0.00553489 92 16 
276 2 -1.88499 5.81275 9.61902 0.00493254 0.000524391 0.00811469 92 1.008 
559 1 -12.5542 7.48831 -4.71424 -0.00142567 0.000340399 0.00363139 187 16 
560 2 -12.4221 7.10439 -5.62826 -0.00537595 -0.00256283 0.00445279 187 1.008 
132 2 -12.13 6.3701 -7.98909 0.00767083 0.00345591 0.00887659 44 1.008 
565 1 -0.480095 8.21967 -8.62793 -0.00565932 0.00247138 -7.30859e-05 189 16 
566 2 -1.18569 8.92655 -8.57563 -0.0206212 -0.0113359 -0.0182753 189 1.008 
330 2 -11.268 6.34892 -3.79538 -0.000424981 0.00643542 0.015962 110 1.008 
397 1 -5.01171 6.44835 -3.40879 -0.00249947 -0.00838102 -0.00605417 133 16 
399 2 -4.92776 7.36357 -3.80326 -0.00124945 -0.0085016 -0.0056783 133 1.008 
535 1 -9.72288 6.60464 -0.814477 0.00114662 0.000832299 0.00152796 179 16 
352 1 -9.92882 7.96812 1.63751 -0.00104454 0.00242534 -0.00145965 118 16 
353 2 -10.0335 7.73491 0.670588 -0.00392241 -0.00487769 0.000778814 118 1.008 
354 2 -10.3797 8.84196 1.82036 -0.00424482 0.00150785 -0.00583495 118 1.008 
592 1 -5.38181 6.44494 4.18521 -0.000106904 0.00190968 0.0041398 198 16 
594 2 -6.01039 6.83429 3.51172 0.0003406 0.0234249 0.0163318 198 1.008 
635 2 -8.59903 7.00972 2.56612 -0.0057111 0.001773 0.00462036 212 1.008 
199 1 -1.44371 6.80102 0.402597 0.00314163 0.00058325 0.00268611 67 16 
201 2 -1.5884 7.39109 1.19706 0.00672139 0.00559705 -0.000577736 67 1.008 
556 1 -1.5606 8.28318 2.63537 0.00213895 0.00287646 0.00130345 186 16 
557 2 -0.593387 8.47257 2.8054 -0.00173064 0.0114918 0.0129514 186 1.008 
558 2 -2.07144 9.14293 2.62279 -0.00671869 -0.0025177 0.00404322 186 1.008 
617 2 -2.52058 7.94872 4.12458 -0.0221733 0.0178561 -0.00852964 206 1.008 
101 2 -5.07211 6.82695 8.47265 0.00563798 -0.00477612 -0.000187171 34 1.008 
112 1 -7.99108 9.85488 7.95714 -0.00331385 -0.00392443 -0.00265414 38 16 
113 2 -8.25955 10.8183 7.9534 -0.00792674 -0.00535824 0.000613554 38 1.008 
114 2 -7.06978 9.76702 8.33631 0.00121176 0.000398029 -0.0130619 38 1.008 
229 1 -11.0233 6.90334 8.74127 5.78233e-05 0.000969248 0.00227146 77 16 
230 2 -10.1358 6.80574 8.29074 -0.00496468 -0.00337574 -0.00633658 77 1.008 
231 2 -10.9124 7.42613 9.58665 0.012927 -0.0103496 0.00739957 77 1.008 
391 1 -8.68921 7.25862 7.26518 -0.00227337 0.00117006 0.004461 131 16 
392 2 -8.95071 7.20287 6.30144 -0.0111159 -0.000272635 0.00710196 131 1.008 
393 2 -8.46712 8.20606 7.49607 -0.000878771 0.00149188 0.00113371 131 1.008 
529 1 -5.43783 10.0242 8.95002 -0.00390574 0.00121028 -0.00408272 177 16 
530 2 -5.09554 9.08585 8.8981 -0.0157169 -0.00361707 0.00831892 177 1.008 
100 1 -4.34663 7.43795 8.78987 0.000751764 0.000946699 -0.000539535 34 16 
531 2 -4.69831 10.6334 9.23678 0.0048193 -0.00367639 -0.0167457 177 1.008 
338 2 -12.6365 6.48386 8.04558 -0.00133499 0.030799 -0.00164702 113 1.008 
446 2 -2.99637 11.4559 8.14179 -0.022484 -0.00402098 0.000944486 149 1.008 
618 2 -3.92326 7.33932 4.69772 -0.00457855 0.0021843 0.0171859 206 1.008 
61 1 -0.902774 9.465 9.34433 -0.00110422 0.000321989 0.000240338 21 16 
62 2 -0.770002 8.94202 10.1864 -0.00586262 -0.00796554 -0.00434543 21 1.008 
63 2 -1.26268 8.86304 8.63131 -0.00565911 0.00954392 -0.00502221 21 1.008 
102 2 -3.5992 7.44116 8.12533 0.00104091 0.00568729 4.3636e-05 34 1.008 
275 2 -3.15639 6.69174 10.1466 0.00487648 0.00548914 -0.00108488 92 1.008 
310 1 -1.94762 7.76089 7.41047 0.00152315 -0.00459503 -0.000747693 104 16 
311 2 -1.68424 6.83042 7.66569 0.00494546 -0.00280855 0.00163133 104 1.008 
312 2 -2.23057 7.77603 6.45132 -0.00017051 -0.00848608 -0.00014989 104 1.008 
445 1 -2.95287 11.4451 9.14093 -0.00232244 -0.000317179 -5.45848e-05 149 16 
447 2 -2.1616 10.9084 9.43437 0.00440961 0.00221617 -0.0140983 149 1.008 
496 1 -0.220372 7.63604 11.3225 0.000497944 -0.000265521 0.00574471 166 16 
497 2 -0.121962 7.73886 12.3124 0.00875321 -0.0158667 0.00638405 166 1.008 
498 2 -0.98961 7.02804 11.1253 0.0156921 -0.0183946 0.00317317 166 1.008 
616 1 -3.04857 7.75284 4.9511 0.00113324 -0.000835491 0.00178316 206 16 
181 1 8.64385 -7.79357 -4.57695 0.00150451 0.00136039 -0.00151336 61 16 
182 2 9.6182 -7.57023 -4.54496 0.00368849 -0.00795306 -0.00794624 61 1.008 
183 2 8.18805 -7.20254 -5.24269 0.00329177 0.00379176 -0.000347234 61 1.008 
235 1 6.76496 -6.69178 -8.2916 0.00419384 -0.000839837 -0.000684343 79 16 
237 2 6.53466 -7.65486 -8.1512 -0.007337 0.00286482 0.0047053 79 1.008 
550 1 6.39817 -6.49644 -11.1055 -0.00113559 -0.000699543 -0.000935313 184 16 
551 2 6.29266 -6.35852 -10.1205 0.0128665 0.0157592 -0.0018865 184 1.008 
552 2 7.32994 -6.80262 -11.3013 -0.00378504 -0.00301893 -0.00910172 184 1.008 
376 1 0.42078 -6.59936 -2.98381 0.00291911 -0.00263973 -0.00169708 126 16 
547 1 2.69436 -6.68406 -1.39268 -0.00299308 0.00211917 0.00147787 183 16 
548 2 1.85495 -6.61363 -1.93184 -0.010574 0.000221942 0.0133226 183 1.008 
549 2 2.47883 -7.04769 -0.486255 0.0111581 -0.00224983 0.0029104 183 1.008 
648 2 4.11939 -7.67047 -2.28787 -0.00143832 -8.14839e-05 0.00282718 216 1.008 
604 1 7.43285 -8.58749 -2.04495 5.49243e-05 -0.00117986 0.00168355 202 16 
606 2 8.03084 -8.24453 -2.76955 -0.00522763 -0.00773188 -0.00554634 202 1.008 
646 1 4.81675 -7.93723 -2.95331 -0.00244718 -0.00204446 0.0027905 216 16 
647 2 4.45939 -7.81211 -3.879 -0.00632984 -0.0120101 0.00310344 216 1.008 
410 2 8.18245 -8.71715 -0.337807 0.00873953 -0.00392255 -0.00264985 137 1.008 
512 2 6.75154 -6.89246 -0.0226478 -0.00930755 -0.000207869 0.00303777 171 1.008 
605 2 6.47771 -8.46494 -2.31508 -0.00173857 -0.0020438 0.00820448 202 1.008 
3 2 0.239644 -8.36643 3.92212 0.00669882 -0.00122931 -0.00511835 1 1.008 
218 2 1.8243 -6.77912 2.8732 -0.0126828 -0.00583738 -0.0157313 73 1.008 
1 1 0.518526 -7.41157 3.81848 -0.0053099 0.00270848 0.00014531 1 16 
7 1 5.1661 -6.441 2.723 -0.00247672 -0.00128642 -0.00376576 3 16 
9 2 4.19649 -6.39386 2.48237 -0.00162939 0.000146894 -0.00625418 3 1.008 
409 1 8.56862 -8.54579 0.568718 -0.000464457 0.000985714 0.000165979 137 16 
411 2 8.89913 -7.6031 0.617512 -0.000717673 0.00100898 -0.00172765 137 1.008 
568 1 7.84264 -9.41293 3.27628 0.000452562 -0.000397585 0.000462228 190 16 
569 2 8.00033 -9.13677 2.32804 0.00198938 -0.00518855 -0.0005163 190 1.008 
570 2 7.59999 -10.3828 3.30509 0.0151988 -0.00375911 0.00630746 190 1.008 
2 2 0.950298 -7.09676 4.66391 -0.00102802 0.000632296 -0.00144695 1 1.008 
187 1 2.05115 -7.49035 6.2908 0.0036627 -0.00270493 0.000821424 63 16 
188 2 2.84836 -6.91395 6.4711 0.00789186 -0.00851366 -0.00017569 63 1.008 
189 2 2.32282 -8.45254 6.31648 -0.00199126 -0.00431329 -0.00568951 63 1.008 
507 2 0.680058 -6.7884 7.23069 0.000963484 -0.0202455 0.00588547 169 1.008 
522 2 0.148161 -8.61348 7.78249 -0.00197013 -0.0027696 -0.00335285 174 1.008 
4 1 6.29332 -7.56836 5.022 -0.000105169 -0.0045013 -0.00155401 2 16 
5 2 6.72116 -8.32025 4.5201 0.00793764 0.00638103 -0.0106998 2 1.008 
6 2 5.90527 -6.91303 4.37376 -0.0230108 -0.0100369 0.00679877 2 1.008 
518 2 4.60714 -6.34868 7.63883 0.00759424 -0.00034052 0.00164198 173 1.008 
19 1 10.0083 -8.53377 4.80287 -0.00305099 0.001057 -0.00436306 7 16 
20 2 9.21695 -8.91465 4.32429 0.00268835 0.00569302 -0.0171968 7 1.008 
21 2 10.8465 -8.934 4.43211 0.0009792 0.00204698 0.00408838 7 1.008 
37 1 8.56983 -6.87838 6.45862 0.000394735 0.00495055 -0.00258952 13 16 
38 2 7.70347 -7.08997 6.00593 0.00223821 -0.00440906 -0.0014181 13 1.008 
39 2 9.28396 -7.48738 6.11305 0.00553385 0.00999704 -0.000415299 13 1.008 
157 1 5.13207 -6.5226 9.24054 0.000577211 -0.00230176 -0.00422339 53 16 
519 2 5.12255 -6.65858 6.12038 -0.00444687 0.00253002 -0.00276599 173 1.008 
33 2 5.36609 -6.04214 -12.4098 0.0236098 0.00895156 -0.0114447 11 1.008 
236 2 6.96544 -6.26496 -7.40961 0.000312448 0.00393518 -0.00229122 79 1.008 
508 1 7.06411 -5.57936 -5.67159 6.38792e-05 0.00251745 0.00218654 170 16 
509 2 7.02985 -5.69433 -4.67867 -0.0165902 0.00864778 0.00214654 170 1.008 
510 2 7.05855 -4.60444 -5.89468 -0.00415376 0.000870306 -0.00419499 170 1.008 
16 1 0.681513 -1.45342 -6.18857 0.000108399 -0.00248778 -7.76518e-05 6 16 
17 2 0.492233 -1.76044 -5.25573 -0.0132388 -0.000968075 -0.00243484 6 1.008 
18 2 0.0639443 -1.91729 -6.82396 0.00426203 0.00215889 -0.00728157 6 1.008 
478 1 3.02048 -0.265248 -7.26831 0.000671243 -0.00309573 0.000903919 160 16 
479 2 2.18308 -0.805185 -7.18167 -0.00297408 0.00246823 -0.00154825 160 1.008 
480 2 3.68409 -0.567112 -6.58363 -0.00740222 -9.00053e-06 0.00984082 160 1.008 
626 2 4.1514 -1.66468 -4.34389 -0.00988823 -0.00603348 -0.0103328 209 1.008 
625 1 4.53816 -1.35279 -5.21188 0.00138616 0.00408726 -0.0014678 209 16 
301 1 8.74818 -1.24322 -6.36143 0.000330298 -0.00487841 -0.00328408 101 16 
302 2 8.76133 -1.12865 -7.35489 0.0253985 0.00474015 -0.00167558 101 1.008 
303 2 8.61931 -0.352687 -5.92483 0.025561 -0.00456791 0.00310035 101 1.008 
379 1 6.82382 -2.83589 -5.25758 0.00433745 -0.00106474 -0.000133058 127 16 
380 2 7.05611 -3.19509 -4.35354 0.00111945 -0.004984 -0.00103573 127 1.008 
381 2 7.55505 -2.2314 -5.57408 0.00042098 0.00857896 0.00971977 127 1.008 