units  real
atom_style  full
boundary  p p p
pair_style  lj/cut/coul/long 12
kspace_style  ewald 0.0001
pair_modify tail yes
pair_modify mix arithmetic
special_bonds  amber
bond_style  harmonic
angle_style  harmonic
read_data  nvt.data
  orthogonal box = (-12.6713 -12.6824 -12.6758) to (12.6713 12.6824 12.6758)
  2 by 4 by 2 MPI processor grid
  reading atoms ...
  648 atoms
  scanning bonds ...
  1 = max bonds/atom
  scanning angles ...
  1 = max angles/atom
  reading bonds ...
  432 bonds
  reading angles ...
  216 angles
  2 = max # of 1-2 neighbors
  1 = max # of 1-3 neighbors
  1 = max # of 1-4 neighbors
  2 = max # of special neighbors
neighbor  2.0 bin
neigh_modify  delay 0 every 1 check yes page 1000000 one 20000
timestep  1.0
velocity  all zero linear units box
dump  DUMP all custom 2 nvt.dump id type x y z vx vy vz mol mass
thermo_style  custom step vol temp press ke pe etotal enthalpy evdwl ecoul epair ebond eangle edihed eimp emol elong etail lx ly lz xy xz yz density
thermo  1
fix  NVT all nvt temp 300 300 100.0
restart  50000 restart.nvt.1 restart.nvt.2
run  100
Ewald initialization ...
  G vector (1/distance) = 0.203418
  estimated absolute RMS force accuracy = 0.0332238
  estimated relative force accuracy = 0.000100053
  KSpace vectors: actual max1d max3d = 257 5 665
                  kxmax kymax kzmax  = 5 5 5
Neighbor list info ...
  1 neighbor list requests
  update every 1 steps, delay 0 steps, check yes
  master list distance cutoff = 14
  ghost atom cutoff = 14
WARNING: Inconsistent image flags (../domain.cpp:756)
Memory usage per processor = 6.76376 Mbytes
Step Volume Temp Press KinEng PotEng TotEng Enthalpy E_vdwl E_coul E_pair E_bond E_angle E_dihed E_impro E_mol E_long E_tail Lx Ly Lz Xy Xz Yz Density 
       0    16296.254            0    8868.7879            0   -2077.7505   -2077.7505    30.042414    442.49912    5771.5979   -2077.7536 0.0030580621 1.0525998e-08            0            0 0.0030580726   -8291.8506   -2.1699155    25.342563    25.364776     25.35165            0            0            0   0.39652758 
       1    16296.254    16.524772    7317.8613    31.869413   -2111.8094     -2079.94   -340.74667    442.27595     5735.053   -2114.4966    2.5746206   0.11257149            0            0    2.6871921   -8291.8255   -2.1699155    25.342563    25.364776     25.35165            0            0            0   0.39652758 
       2    16296.254     50.44663    2992.9944    97.290569   -2181.4469   -2084.1564   -1372.8289    441.67136    5633.2606   -2216.8238    33.700973     1.675883            0            0    35.376856   -8291.7557   -2.1699155    25.342563    25.364776     25.35165            0            0            0   0.39652758 
       3    16296.254     71.58002   -3074.4675    138.04809   -2223.9238   -2085.8757   -2816.5664    440.86106    5489.2446   -2361.5534    130.05597    7.5736555            0            0    137.62962   -8291.6591   -2.1699155    25.342563    25.364776     25.35165            0            0            0   0.39652758 
       4    16296.254    67.054484   -9185.1776    129.32021   -2212.6866   -2083.3664   -4266.3538    440.07262    5337.9549   -2513.5389    280.20886    20.643438            0            0     300.8523   -8291.5665   -2.1699155    25.342563    25.364776     25.35165            0            0            0   0.39652758 
       5    16296.254    53.376027   -13380.393    102.94016   -2182.5833   -2079.6431   -5259.6829    439.52046    5217.7793   -2634.2144    409.34943    42.281651            0            0    451.63108   -8291.5142   -2.1699155    25.342563    25.364776     25.35165            0            0            0   0.39652758 
       6    16296.254    56.046822   -14200.725    108.09101   -2186.9707   -2078.8797   -5453.8829    439.33818    5158.1383   -2694.0528    435.15835    71.923699            0            0    507.08205   -8291.5292   -2.1699155    25.342563    25.364776     25.35165            0            0            0   0.39652758 
       7    16296.254    79.956555   -11380.986    154.20294   -2235.9124   -2081.7095   -4786.5619    439.54329    5168.0631   -2684.0092    340.91839    107.17837            0            0    448.09677   -8291.6156   -2.1699155    25.342563    25.364776     25.35165            0            0            0   0.39652758 
       8    16296.254    103.60933   -5992.0886     199.8193    -2284.674   -2084.8547   -3508.9593     440.0366    5232.4863   -2619.2293    190.35158    144.20369            0            0    334.55528   -8291.7522   -2.1699155    25.342563    25.364776     25.35165            0            0            0   0.39652758 
       9    16296.254    103.54761    102.83107    199.70027   -2283.9683    -2084.268   -2059.8288    440.63758    5320.1203   -2531.1453    69.012979    178.16401            0            0    247.17699   -8291.9031   -2.1699155    25.342563    25.364776     25.35165            0            0            0   0.39652758 
      10    16296.254    81.600308    5034.1802    157.37306   -2237.5536   -2080.1805   -883.73638    441.14407    5395.4832   -2455.4046    13.941782    203.90918            0            0    217.85096   -8292.0318   -2.1699155    25.342563    25.364776     25.35165            0            0            0   0.39652758 
      11    16296.254    64.094934    7491.5954    123.61247   -2200.5536   -2076.9412    -296.4575    441.39607    5430.4265   -2420.2867     2.676498    217.05653            0            0    219.73303   -8292.1093   -2.1699155    25.342563    25.364776     25.35165            0            0            0   0.39652758 
      12    16296.254    73.316853     6899.411    141.39772   -2219.0285   -2077.6308   -437.88815    441.33062    5411.6829   -2439.1031    4.8001154    215.27444            0            0    220.07456   -8292.1166   -2.1699155    25.342563    25.364776     25.35165            0            0            0   0.39652758 
      13    16296.254    102.86921    3366.5393    198.39192   -2279.6959    -2081.304   -1281.1983    441.00482    5342.2321   -2508.8096     30.02188    199.09181            0            0    229.11369   -8292.0465   -2.1699155    25.342563    25.364776     25.35165            0            0            0   0.39652758 
      14    16296.254    124.56218   -2276.7919    240.22863   -2323.8527   -2083.6241   -2624.7359    440.57794    5241.5658    -2609.765    114.25083    171.66145            0            0    285.91228   -8291.9088   -2.1699155    25.342563    25.364776     25.35165            0            0            0   0.39652758 
      15    16296.254    119.16641   -8469.7712    229.82244   -2311.4838   -2081.6614   -4094.6224    440.26174     5142.209   -2709.2642    260.11742    137.66298            0            0    397.78041    -8291.735   -2.1699155    25.342563    25.364776     25.35165            0            0            0   0.39652758 
      16    16296.254    96.715135   -13234.786    186.52327   -2263.9876   -2077.4643   -5222.8985    440.26145     5080.612    -2770.701    404.63937    102.07405            0            0    506.71342   -8291.5744   -2.1699155    25.342563    25.364776     25.35165            0            0            0   0.39652758 
      17    16296.254    84.089966   -14874.612    162.17457   -2237.4386    -2075.264    -5610.426    440.71063    5084.8011   -2765.9666    459.22308    69.304971            0            0    528.52805   -8291.4783   -2.1699155    25.342563    25.364776     25.35165            0            0            0   0.39652758 
      18    16296.254    94.259104   -12758.005    181.78661   -2258.8365   -2077.0499   -5109.1704    441.63809    5161.8522   -2687.9876    386.47136    42.679721            0            0    429.15108   -8291.4779   -2.1699155    25.342563    25.364776     25.35165            0            0            0   0.39652758 
      19    16296.254    111.65306    -7632.081    215.33231   -2295.6225   -2080.2902   -3894.1622    442.95837    5294.1204   -2554.4922    234.82827    24.041376            0            0    258.86965    -8291.571   -2.1699155    25.342563    25.364776     25.35165            0            0            0   0.39652758 
      20    16296.254    109.97464   -1239.6986    212.09534   -2292.7372   -2080.6419   -2375.2738    444.50129    5446.4359   -2400.7875    94.627376    13.422918            0            0    108.05029   -8291.7248   -2.1699155    25.342563    25.364776     25.35165            0            0            0   0.39652758 
      21    16296.254     82.68005    4461.9576    159.45543   -2236.4189   -2076.9635   -1016.5161    446.06219    5579.1349   -2266.6947    21.226351    9.0493709            0            0    30.275722   -8291.8917   -2.1699155    25.342563    25.364776     25.35165            0            0            0   0.39652758 
      22    16296.254    52.078262    7964.9665    100.43731   -2173.1572   -2072.7199   -179.73287    447.46886    5659.9837   -2184.5723    3.3226087    8.0925339            0            0    11.415143   -8292.0249   -2.1699155    25.342563    25.364776     25.35165            0            0            0   0.39652758 
      23    16296.254    46.387249    8474.0893     89.46171   -2161.3394   -2071.8777    -57.89049    448.63816    5671.2143   -2172.2347    2.6841815    8.2111275            0            0    10.895309   -8292.0872   -2.1699155    25.342563    25.364776     25.35165            0            0            0   0.39652758 
      24    16296.254     69.63188    5874.3885    134.29094   -2209.3519    -2075.061   -678.92943    449.60101    5610.7627   -2231.6927    13.300399     9.040339            0            0    22.340738   -8292.0564   -2.1699155    25.342563    25.364776     25.35165            0            0            0   0.39652758 
      25    16296.254    97.468362    746.42364    187.97593   -2266.2502   -2078.2742   -1900.8761    450.49727    5493.0703    -2348.363    69.669066    12.443759            0            0    82.112825   -8291.9305   -2.1699155    25.342563    25.364776     25.35165            0            0            0   0.39652758 
      26    16296.254    103.49948   -5589.5288    199.60746   -2277.2674     -2077.66   -3406.0906    451.53052    5346.9563   -2493.2468    194.68393    21.295451            0            0    215.97938   -8291.7336   -2.1699155    25.342563    25.364776     25.35165            0            0            0   0.39652758 
      27    16296.254    87.077623   -11230.277    167.93652   -2241.6775    -2073.741   -4742.7753    452.90406    5210.2441   -2628.3645    348.87759    37.809363            0            0    386.68695   -8291.5127   -2.1699155    25.342563    25.364776     25.35165            0            0            0   0.39652758 
      28    16296.254    72.242718   -14258.736    139.32616   -2209.6453   -2070.3191   -5459.1096    454.76236     5119.758   -2716.8036    444.65629    62.501996            0            0    507.15829    -8291.324   -2.1699155    25.342563    25.364776     25.35165            0            0            0   0.39652758 
      29    16296.254    79.581384   -13580.778    153.47939   -2224.3412   -2070.8619   -5298.5259    457.14721    5097.1947   -2736.8693    418.51124    94.016772            0            0    512.52801   -8291.2112   -2.1699155    25.342563    25.364776     25.35165            0            0            0   0.39652758 
      30    16296.254    102.61137   -9447.3141    197.89466   -2271.9004   -2074.0057   -4319.2936    459.99005    5141.2011   -2689.9977    288.66896    129.42835            0            0    418.09731   -8291.1888   -2.1699155    25.342563    25.364776     25.35165            0            0            0   0.39652758 
      31    16296.254    115.03122   -3336.1808    221.84737   -2297.4397   -2075.5923   -2868.4829    463.13137    5227.9081   -2600.2005    138.10214    164.65864            0            0    302.76078     -8291.24   -2.1699155    25.342563    25.364776     25.35165            0            0            0   0.39652758 
      32    16296.254    100.82183    2754.3145    194.44337   -2267.5885   -2073.1452   -1418.5433    466.37176    5321.6804   -2503.2751    40.728028    194.95852            0            0    235.68655   -8291.3272   -2.1699155    25.342563    25.364776     25.35165            0            0            0   0.39652758 
      33    16296.254    73.492314    7082.9104    141.73611   -2210.2547   -2068.5186   -385.16468    469.52916    5388.5581   -2433.3207    7.4194683     215.6465            0            0    223.06597   -8291.4079   -2.1699155    25.342563    25.364776     25.35165            0            0            0   0.39652758 
      34    16296.254    62.409965    8573.1936    120.36287   -2186.6324   -2066.2695    -28.72875    472.49663    5405.3731   -2413.5766    3.7419471    223.20225            0            0     226.9442   -8291.4463   -2.1699155    25.342563    25.364776     25.35165            0            0            0   0.39652758 
      35    16296.254     80.87507    6880.1503    155.97437   -2224.3541   -2068.3797   -433.21461    475.27031    5364.7134   -2451.4378    10.721815    216.36194            0            0    227.08376   -8291.4215   -2.1699155    25.342563    25.364776     25.35165            0            0            0   0.39652758 
      36    16296.254    111.44449    2375.0794    214.93006   -2286.9498   -2072.0197   -1507.5485    477.95255    5276.1815   -2537.1989     53.70778    196.54136            0            0    250.24913   -8291.3329   -2.1699155    25.342563    25.364776     25.35165            0            0            0   0.39652758 
      37    16296.254    124.95612   -3807.1411    240.98838   -2313.7828   -2072.7944   -2977.6154    480.71417     5164.963   -2645.5279    164.47029    167.27483            0            0    331.74512   -8291.2051   -2.1699155    25.342563    25.364776     25.35165            0            0            0   0.39652758 
      38    16296.254    112.00223   -9846.2756    216.00571   -2285.5338    -2069.528   -4409.6348    483.74339    5066.8002   -2740.5418    321.91165    133.09642            0            0    455.00807   -8291.0854   -2.1699155    25.342563    25.364776     25.35165            0            0            0   0.39652758 
      39    16296.254    91.942634   -13716.641     177.3191   -2242.7548   -2065.4357   -5325.3894     487.1857    5017.6083   -2786.2381    444.96214    98.521117            0            0    543.48325    -8291.032   -2.1699155    25.342563    25.364776     25.35165            0            0            0   0.39652758 
      40    16296.254    90.045543   -14005.311     173.6604   -2238.3761   -2064.7156   -5393.2759    491.09945    5039.5851   -2760.4072    454.63612    67.395007            0            0    522.03113   -8291.0917   -2.1699155    25.342563    25.364776     25.35165            0            0            0   0.39652758 
      41    16296.254    108.76406   -10574.452    209.76064   -2277.2875   -2067.5269    -4580.695    495.43065    5131.6838    -2664.165     344.3958    42.481729            0            0    386.87753   -8291.2795   -2.1699155    25.342563    25.364776     25.35165            0            0            0   0.39652758 
      42    16296.254     125.1412   -4628.6769    241.34533   -2311.4445   -2070.0991   -3170.1697    500.03113    5269.0002   -2522.5402    185.98271     25.11305            0            0    211.09576   -8291.5716   -2.1699155    25.342563    25.364776     25.35165            0            0            0   0.39652758 
      43    16296.254    117.02303    1876.4747    225.68876   -2294.5289   -2068.8401   -1622.8694    504.69461    5412.7496   -2374.4708    64.979129    14.962816            0            0    79.941946    -8291.915   -2.1699155    25.342563    25.364776     25.35165            0            0            0   0.39652758 
      44    16296.254    88.826466    7039.3977    171.30931   -2235.8668   -2064.5575   -391.54506    509.22531    5523.7953   -2259.2267    13.085852    10.273971            0            0    23.359823   -8292.2473   -2.1699155    25.342563    25.364776     25.35165            0            0            0   0.39652758 
      45    16296.254    68.025542     9564.722    131.19298   -2192.3486   -2061.1556     212.0359    513.48879    5573.9876   -2205.0361    3.8550418    8.8324207            0            0    12.687463   -8292.5124   -2.1699155    25.342563    25.364776     25.35165            0            0            0   0.39652758 
      46    16296.254    75.841351    8885.6809    146.26642   -2208.1546   -2061.8881     49.91966    517.45957    5550.4128   -2224.7985    7.2498514    9.3940732            0            0    16.643925   -8292.6709   -2.1699155    25.342563    25.364776     25.35165            0            0            0   0.39652758 
      47    16296.254    104.28019     5145.824    201.11312    -2266.569   -2065.4558   -842.47794    521.22379    5457.1868   -2314.2952    35.161283    12.564987            0            0     47.72627   -8292.7058   -2.1699155    25.342563    25.364776     25.35165            0            0            0   0.39652758 
      48    16296.254    124.81271   -768.80609    240.71181   -2308.2504   -2067.5386   -2250.2562    524.95084    5315.0821   -2452.5951    123.99442    20.350292            0            0    144.34472   -8292.6281   -2.1699155    25.342563    25.364776     25.35165            0            0            0   0.39652758 
      49    16296.254    119.12057    -7228.245    229.73404   -2295.2517   -2065.5177   -3783.4124    528.84067     5158.827   -2604.8107    274.79116    34.767815            0            0    309.55897   -8292.4784   -2.1699155    25.342563    25.364776     25.35165            0            0            0   0.39652758 
      50    16296.254    98.127125   -12184.393    189.24641   -2250.6091   -2061.3627   -4957.1561    533.05936     5029.273   -2729.9868    422.74977    56.627862            0            0    479.37763   -8292.3191   -2.1699155    25.342563    25.364776     25.35165            0            0            0   0.39652758 
      51    16296.254    88.696513   -13897.901    171.05869   -2230.3016   -2059.2429   -5362.2757    537.69336    4960.6025   -2793.9185    478.51959    85.097321            0            0    563.61691   -8292.2144   -2.1699155    25.342563    25.364776     25.35165            0            0            0   0.39652758 
      52    16296.254    103.09548    -11732.58     198.8283   -2259.9102   -2061.0819   -4849.4956    542.72214    4966.8725   -2782.6103     404.8165    117.88367            0            0    522.70017    -8292.205   -2.1699155    25.342563    25.364776     25.35165            0            0            0   0.39652758 
      53    16296.254    125.13825   -6465.7088    241.33964   -2305.4952   -2064.1556   -3600.8228    548.02532    5036.6981   -2707.5683    250.44978    151.62333            0            0    402.07311   -8292.2917   -2.1699155    25.342563    25.364776     25.35165            0            0            0   0.39652758 
      54    16296.254    128.41835    88.863572    247.66558    -2312.152   -2064.4864   -2043.3667    553.42204    5138.3382   -2600.6777    106.24787    182.27783            0            0    288.52571    -8292.438   -2.1699155    25.342563    25.364776     25.35165            0            0            0   0.39652758 
      55    16296.254     106.4892     5898.954    205.37338   -2266.1959   -2060.8225   -658.85263    558.71703    5233.4731   -2500.3968    28.573589    205.62732            0            0    234.20091   -8292.5869   -2.1699155    25.342563    25.364776     25.35165            0            0            0   0.39652758 
      56    16296.254    81.238444    9393.6063    156.67517    -2213.167   -2056.4919    176.03159    563.76078    5289.5978   -2439.3245    8.1192228    218.03826            0            0    226.15749   -8292.6831   -2.1699155    25.342563    25.364776     25.35165            0            0            0   0.39652758 
      57    16296.254    79.536358    9744.1526    153.39256    -2209.192   -2055.7995    260.03627    568.48379    5288.0484   -2436.1558    9.5345852    217.42915            0            0    226.96374    -8292.688   -2.1699155    25.342563    25.364776     25.35165            0            0            0   0.39652758 
      58    16296.254    103.75261    6878.0196    200.09564   -2259.0005   -2058.9049   -424.24618     572.9073    5227.7475   -2491.9328    28.971168    203.96111            0            0    232.93228   -8292.5876   -2.1699155    25.342563    25.364776     25.35165            0            0            0   0.39652758 
      59    16296.254    129.01463    1473.8274    248.81557   -2310.6566   -2061.8411   -1711.5651    577.13046     5125.064   -2590.2031     99.58125    179.96526            0            0    279.54651   -8292.3976   -2.1699155    25.342563    25.364776     25.35165            0            0            0   0.39652758 
      60    16296.254    130.34931   -5016.8292    251.38961   -2312.3866    -2060.997   -3253.3175    581.29481    5011.0176   -2699.8508     238.3047     149.1595            0            0     387.4642   -8292.1633   -2.1699155    25.342563    25.364776     25.35165            0            0            0   0.39652758 
      61    16296.254    109.50889   -10576.839     211.1971   -2267.9896   -2056.7925    -4570.528     585.5326    4924.3978   -2782.0217     398.3394    115.69275            0            0    514.03215   -8291.9521   -2.1699155    25.342563    25.364776     25.35165            0            0            0   0.39652758 
      62    16296.254    91.925941   -13273.347    177.28691   -2230.7718   -2053.4849   -5208.0837     589.9309    4898.7422   -2803.1613     488.9467    83.442784            0            0    572.38948   -8291.8344   -2.1699155    25.342563    25.364776     25.35165            0            0            0   0.39652758 
      63    16296.254    97.699355   -12082.713    188.42142   -2242.4827   -2054.0613    -4925.689    594.49733    4949.1972   -2748.1617    450.08909     55.58997            0            0    505.67906   -8291.8562   -2.1699155    25.342563    25.364776     25.35165            0            0            0   0.39652758 
      64    16296.254    119.06376   -7397.8957    229.62447   -2286.8489   -2057.2245    -3815.439    599.16248    5064.8921   -2627.9642     306.8262    34.289077            0            0    341.11528   -8292.0188   -2.1699155    25.342563    25.364776     25.35165            0            0            0   0.39652758 
      65    16296.254    129.23106   -826.89009    249.23297   -2307.8847   -2058.6517   -2255.1738    603.79089    5213.2534   -2475.2329    146.99253    20.355675            0            0    167.34821   -8292.2772   -2.1699155    25.342563    25.364776     25.35165            0            0            0   0.39652758 
      66    16296.254    112.75862    5549.1823    217.46449   -2273.3753   -2055.9108   -737.06914    608.22737    5352.5439    -2331.787     45.27641    13.135298            0            0    58.411708   -8292.5583   -2.1699155    25.342563    25.364776     25.35165            0            0            0   0.39652758 
      67    16296.254    83.771381    9956.9829    161.56015   -2212.7428   -2051.1827    315.23522    612.34039    5445.6468   -2234.7996    11.156495    10.900258            0            0    22.056754   -8292.7868   -2.1699155    25.342563    25.364776     25.35165            0            0            0   0.39652758 
      68    16296.254    71.521369     11336.81    137.93498   -2186.9353   -2049.0004    645.35296    616.06092    5468.9062   -2207.9377    9.1037186    11.898668            0            0    21.002387   -8292.9049   -2.1699155    25.342563    25.364776     25.35165            0            0            0   0.39652758 
      69    16296.254    88.781089    9394.6511     171.2218   -2222.2937   -2051.0719    181.69989    619.40072     5415.909   -2257.5755    19.766445    15.515387            0            0    35.281832   -8292.8852   -2.1699155    25.342563    25.364776     25.35165            0            0            0   0.39652758 
      70    16296.254    117.81395    4566.8965    227.21411   -2281.7654   -2054.5513   -969.16376    622.45015    5297.7513   -2372.5347     68.16096    22.608263            0            0    90.769223   -8292.7362   -2.1699155    25.342563    25.364776     25.35165            0            0            0   0.39652758 
      71    16296.254    129.53517   -1941.7148    249.81948   -2304.9058   -2055.0864   -2516.5624    625.34621    5141.9955   -2525.1608    185.53562     34.71936            0            0    220.25498   -8292.5025   -2.1699155    25.342563    25.364776     25.35165            0            0            0   0.39652758 
      72    16296.254    114.87315   -8243.6694    221.54253    -2272.979   -2051.4365   -4010.6612    628.23597    4988.3181   -2675.7027    349.83993    52.883745            0            0    402.72368   -8292.2568   -2.1699155    25.342563    25.364776     25.35165            0            0            0   0.39652758 
      73    16296.254    93.859196   -12265.532    181.01535   -2228.2192   -2047.2039   -4962.2811    631.23051    4877.7739   -2783.0742    477.95103    76.903966            0            0    554.85499   -8292.0786   -2.1699155    25.342563    25.364776     25.35165            0            0            0   0.39652758 
      74    16296.254    92.624145   -12555.633    178.63345   -2224.9021   -2046.2687   -5030.2925    634.37678    4839.3744   -2818.2749    488.08348    105.28928            0            0    593.37276   -8292.0261   -2.1699155    25.342563    25.364776     25.35165            0            0            0   0.39652758 
      75    16296.254    113.91625   -8992.1626    219.69707   -2268.6703   -2048.9733   -4186.0879    637.64657    4877.7955   -2776.6701    372.44846    135.55129            0            0    507.99975   -8292.1121   -2.1699155    25.342563    25.364776     25.35165            0            0            0   0.39652758 
      76    16296.254    133.87978   -2847.3825    258.19842   -2309.6265    -2051.428   -2728.1488    640.94753    4972.0779   -2679.2744    205.09828    164.54967            0            0    369.64795   -8292.2998   -2.1699155    25.342563    25.364776     25.35165            0            0            0   0.39652758 
      77    16296.254    128.84906    3817.9164    248.49625   -2298.5022    -2050.006   -1142.6241    644.15083    5084.8091   -2563.5599    76.225849    188.83183            0            0    265.05768   -8292.5198   -2.1699155    25.342563    25.364776     25.35165            0            0            0   0.39652758 
      78    16296.254    102.50089    9015.7998    197.68158   -2242.9217   -2045.2401    97.492302    647.13098    5176.8519   -2468.7158     20.70369     205.0904            0            0    225.79409   -8292.6987   -2.1699155    25.342563    25.364776     25.35165            0            0            0   0.39652758 
      79    16296.254    82.789865    11403.718    159.66722   -2201.3295   -2041.6623    668.59258    649.79818    5218.8801   -2424.1045    11.946954    210.82796            0            0    222.77492   -8292.7828   -2.1699155    25.342563    25.364776     25.35165            0            0            0   0.39652758 
      80    16296.254    91.479482    10446.871    176.42587   -2218.8129    -2042.387    440.45962    652.12419     5198.247    -2442.379    18.507369    205.05874            0            0    223.56611   -8292.7501   -2.1699155    25.342563    25.364776     25.35165            0            0            0   0.39652758 
      81    16296.254    120.03345    6369.4131     231.4946   -2277.4063   -2045.9117   -532.13059     654.1462    5120.3243   -2518.1414     52.08912    188.64593            0            0    240.73505   -8292.6118   -2.1699155    25.342563    25.364776     25.35165            0            0            0   0.39652758 
      82    16296.254     138.9214    168.28903    267.92161   -2315.5757   -2047.6541   -2007.6578    655.96018    5007.7156   -2628.7329    149.12226    164.03498            0            0    313.15724   -8292.4087   -2.1699155    25.342563    25.364776     25.35165            0            0            0   0.39652758 
      83    16296.254    130.03774    -6414.048    250.78872   -2295.8194   -2045.0307   -3569.4199    657.69417    4896.1118   -2738.3986    307.99813    134.58105            0            0    442.57918   -8292.2045   -2.1699155    25.342563    25.364776     25.35165            0            0            0   0.39652758 
      84    16296.254    106.12012    -11256.28    204.66158   -2245.0137   -2040.3521   -4715.5663    659.47269    4824.8734   -2807.7256    458.84391    103.86807            0            0    562.71198   -8292.0717   -2.1699155    25.342563    25.364776     25.35165            0            0            0   0.39652758 
      85    16296.254    95.831578   -12625.543    184.81926   -2222.8361   -2038.0169   -5038.6558     661.3832     4823.471   -2807.2135    509.15629    75.221121            0            0    584.37741   -8292.0677   -2.1699155    25.342563    25.364776     25.35165            0            0            0   0.39652758 
      86    16296.254    111.46871   -9984.4602    214.97679   -2254.8757    -2039.899   -4412.8472    663.45495    4898.5164   -2730.2388    424.01175    51.351301            0            0    475.36305   -8292.2101   -2.1699155    25.342563    25.364776     25.35165            0            0            0   0.39652758 
      87    16296.254     135.2355   -4261.9714    260.81304   -2303.8299   -2043.0168   -3055.9347    665.65108     5030.408    -2596.406    258.55794    34.018152            0            0    292.57609   -8292.4651   -2.1699155    25.342563    25.364776     25.35165            0            0            0   0.39652758 
      88    16296.254    139.23344    2593.0884     268.5234    -2311.659   -2043.1356   -1426.8515    667.88472    5180.7509   -2444.1238     108.7304     23.73436            0            0    132.46476   -8292.7594   -2.1699155    25.342563    25.364776     25.35165            0            0            0   0.39652758 
      89    16296.254     117.0486    8481.4046    225.73807   -2264.6833   -2038.9452   -23.219431    670.04225    5307.3821   -2315.5845    31.156865     19.74427            0            0    50.901134   -8293.0088   -2.1699155    25.342563    25.364776     25.35165            0            0            0   0.39652758 
      90    16296.254    91.841173     11830.72    177.12343   -2211.5083   -2034.3849    777.35317    672.02024    5376.0349   -2245.0904    13.035051    20.547075            0            0    33.582126   -8293.1456   -2.1699155    25.342563    25.364776     25.35165            0            0            0   0.39652758 
      91    16296.254    91.532597    11875.186    176.52831   -2210.0412   -2033.5129    788.79309      673.758    5368.6312   -2250.7455    15.827756    24.876533            0            0    40.704289   -8293.1346   -2.1699155    25.342563    25.364776     25.35165            0            0            0   0.39652758 
      92    16296.254    118.18461    8609.4256    227.92895   -2264.5198   -2036.5909    9.5609609    675.25539    5284.8113   -2332.9104    35.895296     32.49533            0            0    68.390626   -8292.9772   -2.1699155    25.342563    25.364776     25.35165            0            0            0   0.39652758 
      93    16296.254     145.4882    2778.5087    280.58624   -2320.0549   -2039.4687   -1379.1168    676.57155    5142.4226   -2473.7143    109.51656    44.142778            0            0    153.65934   -8292.7084   -2.1699155    25.342563    25.364776     25.35165            0            0            0   0.39652758 
      94    16296.254     147.3461   -4097.9046    284.16934   -2322.3626   -2038.1933   -3012.1183     677.8153    4975.4727   -2639.1032    256.01353    60.727027            0            0    316.74056   -8292.3911   -2.1699155    25.342563    25.364776     25.35165            0            0            0   0.39652758 
      95    16296.254    126.03139   -9942.7308    243.06213   -2276.6641   -2033.6019   -4396.6326    679.10983    4827.2419   -2785.7492    426.60837    82.476735            0            0    509.08511   -8292.1009   -2.1699155    25.342563    25.364776     25.35165            0            0            0   0.39652758 
      96    16296.254    108.86629   -12761.358    209.95779   -2239.8754   -2029.9176    -5062.835    680.56106    4738.3106   -2873.0288    524.58327    108.57009            0            0    633.15336   -8291.9005   -2.1699155    25.342563    25.364776     25.35165            0            0            0   0.39652758 
      97    16296.254    117.28141   -11518.725    226.18706   -2256.5611    -2030.374   -4767.9619    682.22993    4731.0085    -2878.574    484.80042    137.21249            0            0    622.01291   -8291.8124   -2.1699155    25.342563    25.364776     25.35165            0            0            0   0.39652758 
      98    16296.254    142.64696   -6662.1469    275.10665   -2308.6441   -2033.5375   -3616.8909    684.11137    4800.2017   -2807.4941    332.95761    165.89238            0            0    498.84999   -8291.8072   -2.1699155    25.342563    25.364776     25.35165            0            0            0   0.39652758 
      99    16296.254    155.75108    90.601771    300.37906   -2335.2654   -2034.8863   -2013.3535    686.13351    4915.9978   -2689.6874    162.77391    191.64813            0            0    354.42204   -8291.8187   -2.1699155    25.342563    25.364776     25.35165            0            0            0   0.39652758 
     100    16296.254     139.6056    6551.0944    269.24114   -2301.0686   -2031.8275   -474.86722    688.18003    5036.6957   -2566.9013    54.457771    211.37488            0            0    265.83265    -8291.777   -2.1699155    25.342563    25.364776     25.35165            0            0            0   0.39652758 
Loop time of 0.229116 on 16 procs for 100 steps with 648 atoms

Pair  time (%) = 0.0612566 (26.736)
Bond  time (%) = 0.000495121 (0.2161)
Kspce time (%) = 0.074956 (32.7153)
Neigh time (%) = 0.0017399 (0.759397)
Comm  time (%) = 0.0405318 (17.6905)
Outpt time (%) = 0.0446125 (19.4715)
Other time (%) = 0.00552449 (2.41121)

Nlocal:    40.5 ave 64 max 10 min
Histogram: 1 1 2 1 0 2 3 4 1 1
Nghost:    2156.56 ave 2420 max 1875 min
Histogram: 4 0 0 3 1 0 1 3 0 4
Neighs:    9950.38 ave 15303 max 1964 min
Histogram: 1 1 1 2 0 2 2 1 2 4

Total # of neighbors = 159206
Ave neighs/atom = 245.688
Ave special neighs/atom = 2
Neighbor list builds = 2
Dangerous builds = 0
write_restart  restart.nvt
Ewald initialization ...
  G vector (1/distance) = 0.203418
  estimated absolute RMS force accuracy = 0.0332238
  estimated relative force accuracy = 0.000100053
  KSpace vectors: actual max1d max3d = 257 5 665
                  kxmax kymax kzmax  = 5 5 5
write_data  restart.data
Ewald initialization ...
  G vector (1/distance) = 0.203418
  estimated absolute RMS force accuracy = 0.0332238
  estimated relative force accuracy = 0.000100053
  KSpace vectors: actual max1d max3d = 257 5 665
                  kxmax kymax kzmax  = 5 5 5
