LAMMPS data file via write_data, version 30 Oct 2014, timestep = 370

648 atoms
2 atom types
432 bonds
1 bond types
216 angles
1 angle types

-1.2671281473376668e+01 1.2671281473376668e+01 xlo xhi
-1.2682387775863276e+01 1.2682387775863276e+01 ylo yhi
-1.2675824960757542e+01 1.2675824960757542e+01 zlo zhi

Masses

1 16
2 1.008

Pair Coeffs # lj/cut/coul/long

1 0.15525 3.166
2 0 0

Bond Coeffs # harmonic

1 369.353 1

Angle Coeffs # harmonic

1 41.902 109.47

Atoms # full

244 82 1 -8.1999999999999995e-01 -1.0187701819063891e+01 -5.6827391222294130e+00 -7.2755186317717015e+00 0 0 0
245 82 2 4.0999999999999998e-01 -9.4039789182640021e+00 -5.9803173962979859e+00 -6.7300791745091528e+00 0 0 0
246 82 2 4.0999999999999998e-01 -1.0510150467522832e+01 -6.4437712179162672e+00 -7.8386644460261685e+00 0 0 0
277 93 1 -8.1999999999999995e-01 -6.6512803438140260e+00 -8.1740470583129010e+00 -7.0493879443484619e+00 0 0 0
278 93 2 4.0999999999999998e-01 -7.1225921882144982e+00 -7.3642769228684877e+00 -6.6995069006143897e+00 0 0 0
279 93 2 4.0999999999999998e-01 -7.1216534862524616e+00 -8.9971833083640860e+00 -6.7308411948172528e+00 0 0 0
281 94 2 4.0999999999999998e-01 -4.2940789662803933e+00 -9.3285666472423436e+00 -1.1898141852757639e+01 0 0 0
403 135 1 -8.1999999999999995e-01 -5.9509433772054967e+00 -4.2571042664016172e+00 -6.8539622591523610e+00 0 0 0
404 135 2 4.0999999999999998e-01 -5.3490529579335409e+00 -4.8452460706960503e+00 -7.3944190856115171e+00 0 0 0
406 136 1 -8.1999999999999995e-01 -7.8344597991328602e+00 -6.0145075702207018e+00 -5.7825004928363155e+00 0 0 0
407 136 2 4.0999999999999998e-01 -7.3937235177400540e+00 -5.1764922946817915e+00 -6.1046153624079711e+00 0 0 0
408 136 2 4.0999999999999998e-01 -7.5921650272842101e+00 -6.1717376927009209e+00 -4.8249786120349398e+00 0 0 0
562 188 1 -8.1999999999999995e-01 -4.4618418367040782e+00 -6.5133941554336383e+00 -7.5287042827912432e+00 0 0 0
563 188 2 4.0999999999999998e-01 -5.2204776819202303e+00 -7.1650192252024372e+00 -7.5402579583140561e+00 0 0 0
280 94 1 -8.1999999999999995e-01 -3.4231877533336093e+00 -9.3479043332686622e+00 -1.1406765068407807e+01 0 0 0
564 188 2 4.0999999999999998e-01 -4.0246082493972164e+00 -6.5267286541171563e+00 -6.6293001011279848e+00 0 0 0
571 191 1 -8.1999999999999995e-01 -3.3071515268121541e+00 -6.2551567578893854e+00 -5.0812723438334668e+00 0 0 0
573 191 2 4.0999999999999998e-01 -3.2497417547590342e+00 -5.2594696582329812e+00 -5.0065218598271120e+00 0 0 0
40 14 1 -8.1999999999999995e-01 -1.9991918381294553e+00 -5.2717762825873775e+00 -1.1653823731471153e+01 0 0 0
41 14 2 4.0999999999999998e-01 -1.5154646828200491e+00 -5.8173534041999480e+00 -1.2338388996264552e+01 0 0 0
42 14 2 4.0999999999999998e-01 -2.3856615545891859e+00 -5.8769157360332125e+00 -1.0957602060132398e+01 0 0 0
214 72 1 -8.1999999999999995e-01 -2.8580428849269435e+00 -7.0736497969919201e+00 -9.7074731310688822e+00 0 0 0
215 72 2 4.0999999999999998e-01 -2.1181277831843950e+00 -7.6975299650895819e+00 -9.4553228066757047e+00 0 0 0
216 72 2 4.0999999999999998e-01 -3.3560215562974900e+00 -6.7975289639132130e+00 -8.8852502135351479e+00 0 0 0
282 94 2 4.0999999999999998e-01 -3.2879110526435014e+00 -8.4771421617861584e+00 -1.0933742368676153e+01 0 0 0
292 98 1 -8.1999999999999995e-01 -1.5242749237674840e+00 -9.4613458151182659e+00 -9.2183267272945564e+00 0 0 0
293 98 2 4.0999999999999998e-01 -1.0131296731971933e+00 -1.0269517302259246e+01 -8.9252987869123608e+00 0 0 0
294 98 2 4.0999999999999998e-01 -2.0092277344593086e+00 -9.6640387238955778e+00 -1.0069216457488803e+01 0 0 0
608 203 2 4.0999999999999998e-01 -1.2319644092638011e+00 -4.1970450442180294e+00 -6.9833261160965865e+00 0 0 0
33 11 2 4.0999999999999998e-01 5.3660910987578614e+00 -6.0421426961579057e+00 -1.2409818633590673e+01 0 0 0
181 61 1 -8.1999999999999995e-01 8.6438453502884744e+00 -7.7935666306633271e+00 -4.5769516331671465e+00 0 0 0
182 61 2 4.0999999999999998e-01 9.6182030410210420e+00 -7.5702284404546241e+00 -4.5449631383219842e+00 0 0 0
183 61 2 4.0999999999999998e-01 8.1880491031632996e+00 -7.2025373600057723e+00 -5.2426919151205587e+00 0 0 0
235 79 1 -8.1999999999999995e-01 6.7649588056640031e+00 -6.6917834356816073e+00 -8.2916023765430751e+00 0 0 0
236 79 2 4.0999999999999998e-01 6.9654424107929440e+00 -6.2649633427600540e+00 -7.4096117412959961e+00 0 0 0
237 79 2 4.0999999999999998e-01 6.5346559152600623e+00 -7.6548646447625339e+00 -8.1512045187659226e+00 0 0 0
508 170 1 -8.1999999999999995e-01 7.0641058828767651e+00 -5.5793634916856840e+00 -5.6715912004076543e+00 0 0 0
509 170 2 4.0999999999999998e-01 7.0298503507372754e+00 -5.6943281400599606e+00 -4.6786727007392264e+00 0 0 0
510 170 2 4.0999999999999998e-01 7.0585540041676840e+00 -4.6044399515411953e+00 -5.8946836053651728e+00 0 0 0
550 184 1 -8.1999999999999995e-01 6.3981735524743168e+00 -6.4964367050672571e+00 -1.1105454555374866e+01 0 0 0
551 184 2 4.0999999999999998e-01 6.2926591257985276e+00 -6.3585203704149658e+00 -1.0120506059980162e+01 0 0 0
552 184 2 4.0999999999999998e-01 7.3299393967849955e+00 -6.8026179419889736e+00 -1.1301264633530492e+01 0 0 0
405 135 2 4.0999999999999998e-01 -5.4204534081055371e+00 -3.5024306344252523e+00 -6.4675363512327451e+00 0 0 0
82 28 1 -8.1999999999999995e-01 -7.5670692388968703e+00 1.8145017853392673e+00 -4.7567518636376143e+00 0 0 0
84 28 2 4.0999999999999998e-01 -7.1427537976432953e+00 9.1025519233323493e-01 -4.7060425902149445e+00 0 0 0
295 99 1 -8.1999999999999995e-01 -8.7295996427793234e+00 -3.2615136745206854e+00 -6.7717089170895459e+00 0 0 0
296 99 2 4.0999999999999998e-01 -9.3739467264754985e+00 -4.0217671857689847e+00 -6.8560195798562003e+00 0 0 0
297 99 2 4.0999999999999998e-01 -7.8025104262878067e+00 -3.5882634198933676e+00 -6.9561447359563262e+00 0 0 0
319 107 1 -8.1999999999999995e-01 -5.0280487615910365e+00 -1.7952965144601993e+00 -5.3912971600730293e+00 0 0 0
320 107 2 4.0999999999999998e-01 -6.0071962773796876e+00 -1.6008912283896137e+00 -5.3300264190539632e+00 0 0 0
321 107 2 4.0999999999999998e-01 -4.5769685473912975e+00 -1.0730402877383831e+00 -5.9158456636319148e+00 0 0 0
413 138 2 4.0999999999999998e-01 -4.1452837182009503e+00 1.1338180977817753e+00 -6.8235601094213898e+00 0 0 0
421 141 1 -8.1999999999999995e-01 -7.8376684940869454e+00 2.0725499749284779e+00 -7.5409962580708001e+00 0 0 0
422 141 2 4.0999999999999998e-01 -7.7343032921729051e+00 1.8688576204925216e+00 -6.5672896584941203e+00 0 0 0
423 141 2 4.0999999999999998e-01 -8.8098494190910888e+00 2.1029304589332689e+00 -7.7738440985807582e+00 0 0 0
514 172 1 -8.1999999999999995e-01 -5.1596641671086738e+00 2.6678161924764776e+00 -7.2463605365450050e+00 0 0 0
515 172 2 4.0999999999999998e-01 -5.9324361632073481e+00 2.3572826558389668e+00 -7.8001378021380630e+00 0 0 0
516 172 2 4.0999999999999998e-01 -5.4990253585296989e+00 3.0654822501676318e+00 -6.3937338745239769e+00 0 0 0
541 181 1 -8.1999999999999995e-01 -7.5971263145597501e+00 -7.3943772378657435e-01 -6.1764033376732179e+00 0 0 0
542 181 2 4.0999999999999998e-01 -7.9694837519929491e+00 -1.6546508024258149e+00 -6.3313675550256932e+00 0 0 0
543 181 2 4.0999999999999998e-01 -7.6018305872746845e+00 -2.2773217612711427e-01 -7.0357127777960722e+00 0 0 0
597 199 2 4.0999999999999998e-01 -6.2662826575302928e+00 3.3032510985248216e+00 -4.5029933496811747e+00 0 0 0
595 199 1 -8.1999999999999995e-01 -5.6055201457499084e+00 3.9316430689697697e+00 -4.9138379762677982e+00 0 0 0
475 159 1 -8.1999999999999995e-01 -1.8209043227112272e+00 -3.1185638277241132e+00 -9.8385035888436025e+00 0 0 0
477 159 2 4.0999999999999998e-01 -1.6625052985450761e+00 -3.8353589082459436e+00 -1.0517762425753817e+01 0 0 0
607 203 1 -8.1999999999999995e-01 -1.1168418488275016e+00 -3.2321590555666955e+00 -7.2200077676241579e+00 0 0 0
609 203 2 4.0999999999999998e-01 -1.2631172173155178e+00 -3.1100030995034533e+00 -8.2018229351428982e+00 0 0 0
412 138 1 -8.1999999999999995e-01 -3.6848231692107714e+00 2.7225671174818800e-01 -6.6091645575707032e+00 0 0 0
414 138 2 4.0999999999999998e-01 -3.3209667711556428e+00 -1.2942686211588672e-01 -7.4497217221815006e+00 0 0 0
427 143 1 -8.1999999999999995e-01 -3.4342075972373323e+00 -1.0727548713795656e+00 -9.0277705961901304e+00 0 0 0
428 143 2 4.0999999999999998e-01 -2.9593645626185943e+00 -1.9135035259138586e+00 -9.2884291554445610e+00 0 0 0
429 143 2 4.0999999999999998e-01 -3.5782722002512610e+00 -5.0601162336530692e-01 -9.8391427626100842e+00 0 0 0
430 144 1 -8.1999999999999995e-01 -2.8888363495037712e+00 4.1258695137555783e+00 -5.4018687701971491e+00 0 0 0
432 144 2 4.0999999999999998e-01 -3.8516148157858634e+00 4.0655511629418655e+00 -5.1378684552582206e+00 0 0 0
10 4 1 -8.1999999999999995e-01 2.3578067781876513e+00 2.0745661746578357e+00 -5.0542700812618486e+00 0 0 0
11 4 2 4.0999999999999998e-01 1.5522393085002477e+00 1.8267843731714883e+00 -5.5927330950458689e+00 0 0 0
13 5 1 -8.1999999999999995e-01 -2.8444883882245886e+00 -3.4309375577325127e+00 -5.0422695742687909e+00 0 0 0
14 5 2 4.0999999999999998e-01 -2.3683320096527645e+00 -3.2301129181005912e+00 -5.8985527455618696e+00 0 0 0
15 5 2 4.0999999999999998e-01 -3.5742302619686388e+00 -2.7616104107820654e+00 -4.9017193654449667e+00 0 0 0
16 6 1 -8.1999999999999995e-01 6.8151276248754300e-01 -1.4534219023955757e+00 -6.1885697374787192e+00 0 0 0
17 6 2 4.0999999999999998e-01 4.9223311156009153e-01 -1.7604407686525931e+00 -5.2557304743797246e+00 0 0 0
18 6 2 4.0999999999999998e-01 6.3944301050575802e-02 -1.9172856686966924e+00 -6.8239560641258326e+00 0 0 0
34 12 1 -8.1999999999999995e-01 -9.7308619806419472e-01 1.6267826245817254e+00 -9.1339156843041920e+00 0 0 0
35 12 2 4.0999999999999998e-01 -4.0235383393111590e-01 1.4078094442854940e+00 -8.3423394997722795e+00 0 0 0
36 12 2 4.0999999999999998e-01 -1.7452542685728822e+00 2.1914998704454316e+00 -8.8421493164222262e+00 0 0 0
46 16 1 -8.1999999999999995e-01 -2.7289810169762880e+00 3.6897111650830006e+00 -8.0729494775475850e+00 0 0 0
47 16 2 4.0999999999999998e-01 -3.6674585955595020e+00 3.4386510030099764e+00 -7.8352404019345645e+00 0 0 0
151 51 1 -8.1999999999999995e-01 3.1104749549099253e-02 1.1641149625711567e+00 -6.5053152737886251e+00 0 0 0
152 51 2 4.0999999999999998e-01 -6.4896365941558898e-01 1.4310722662812303e+00 -5.8222941749477242e+00 0 0 0
153 51 2 4.0999999999999998e-01 3.2099313477208469e-01 2.2190450203401824e-01 -6.3365510486386327e+00 0 0 0
190 64 1 -8.1999999999999995e-01 3.1575879870811718e+00 2.3747273664374724e+00 -7.8691898997471252e+00 0 0 0
191 64 2 4.0999999999999998e-01 3.0105865805511431e+00 1.4048762591543493e+00 -7.6741112829663303e+00 0 0 0
192 64 2 4.0999999999999998e-01 3.9437453029614087e+00 2.4766844678357192e+00 -8.4789752281768997e+00 0 0 0
370 124 1 -8.1999999999999995e-01 1.9607760739486935e-01 1.7880628953642237e+00 -1.1632651227263697e+01 0 0 0
371 124 2 4.0999999999999998e-01 1.1003285855392377e+00 2.1749947109470202e+00 -1.1451294662931577e+01 0 0 0
372 124 2 4.0999999999999998e-01 -3.4520062079154812e-01 1.7971950951820972e+00 -1.0791692587082350e+01 0 0 0
394 132 1 -8.1999999999999995e-01 -2.0985095077638576e+00 1.6091789740140712e+00 -4.8417548616275106e+00 0 0 0
395 132 2 4.0999999999999998e-01 -2.8107865616535470e+00 9.6663590804104516e-01 -5.1247328649621542e+00 0 0 0
396 132 2 4.0999999999999998e-01 -2.3793226477491558e+00 2.5409513070235779e+00 -5.0724536779646741e+00 0 0 0
431 144 2 4.0999999999999998e-01 -2.8094477131476889e+00 4.0391010802282885e+00 -6.3950686408505044e+00 0 0 0
476 159 2 4.0999999999999998e-01 -1.4187242708126480e+00 -2.2607905479372281e+00 -1.0159055174547609e+01 0 0 0
478 160 1 -8.1999999999999995e-01 3.0204750513317489e+00 -2.6524764262416234e-01 -7.2683052628832838e+00 0 0 0
479 160 2 4.0999999999999998e-01 2.1830753302391095e+00 -8.0518508553848633e-01 -7.1816729555210390e+00 0 0 0
480 160 2 4.0999999999999998e-01 3.6840862626283890e+00 -5.6711245947239597e-01 -6.5836346297370980e+00 0 0 0
493 165 1 -8.1999999999999995e-01 -8.4553785406663806e-01 -7.7723049885364048e-01 -1.0734380476386592e+01 0 0 0
494 165 2 4.0999999999999998e-01 -8.3442455653855419e-01 -7.1426095876208961e-02 -1.0025865601834454e+01 0 0 0
495 165 2 4.0999999999999998e-01 -6.0371823549010095e-01 -3.6941423987168065e-01 -1.1614997859582571e+01 0 0 0
626 209 2 4.0999999999999998e-01 4.1513977149520418e+00 -1.6646817065836785e+00 -4.3438874159455381e+00 0 0 0
12 4 2 4.0999999999999998e-01 3.0933709513747303e+00 2.3621632452770491e+00 -5.6678742434997327e+00 0 0 0
48 16 2 4.0999999999999998e-01 -2.7416977253521768e+00 4.4489554568417624e+00 -8.7238429729477378e+00 0 0 0
264 88 2 4.0999999999999998e-01 2.3998975000535463e+00 3.9225160814018096e+00 -7.8935480911949352e+00 0 0 0
469 157 1 -8.1999999999999995e-01 2.7232235335282020e+00 2.6128502665680564e+00 -1.0766850139764299e+01 0 0 0
471 157 2 4.0999999999999998e-01 2.6654826152153799e+00 2.4847597800502861e+00 -9.7766302194285650e+00 0 0 0
470 157 2 4.0999999999999998e-01 3.6776871685564121e+00 2.7553820383561369e+00 -1.1029454335517599e+01 0 0 0
625 209 1 -8.1999999999999995e-01 4.5381611841204350e+00 -1.3527895258592313e+00 -5.2118814563817057e+00 0 0 0
226 76 1 -8.1999999999999995e-01 8.4521569392222791e+00 1.2139239238778163e+00 -5.0434787921880826e+00 0 0 0
227 76 2 4.0999999999999998e-01 7.5010148474940070e+00 1.3355241636243740e+00 -5.3277663467048484e+00 0 0 0
228 76 2 4.0999999999999998e-01 8.6115018910618932e+00 1.7118307538337980e+00 -4.1908510674524351e+00 0 0 0
301 101 1 -8.1999999999999995e-01 8.7481805776671511e+00 -1.2432233072349383e+00 -6.3614251320465485e+00 0 0 0
302 101 2 4.0999999999999998e-01 8.7613314639694924e+00 -1.1286457176980793e+00 -7.3548921233916138e+00 0 0 0
303 101 2 4.0999999999999998e-01 8.6193119457216039e+00 -3.5268711057431013e-01 -5.9248286651693691e+00 0 0 0
379 127 1 -8.1999999999999995e-01 6.8238181651126748e+00 -2.8358904201479334e+00 -5.2575833861309844e+00 0 0 0
380 127 2 4.0999999999999998e-01 7.0561080962388854e+00 -3.1950941401766535e+00 -4.3535423305666949e+00 0 0 0
381 127 2 4.0999999999999998e-01 7.5550484307172336e+00 -2.2313993088265853e+00 -5.5740809816345180e+00 0 0 0
586 196 1 -8.1999999999999995e-01 1.0179749467680713e+01 2.5438900493797565e+00 -6.8326882007471923e+00 0 0 0
587 196 2 4.0999999999999998e-01 1.0897201578771254e+01 1.8523556480957968e+00 -6.7471346817209437e+00 0 0 0
588 196 2 4.0999999999999998e-01 9.4492080836145131e+00 2.3490907345818997e+00 -6.1779820296644870e+00 0 0 0
601 201 1 -8.1999999999999995e-01 7.1961866167188955e+00 -2.3407631064495416e+00 -9.0493087101031602e+00 0 0 0
602 201 2 4.0999999999999998e-01 7.1622649881314775e+00 -3.0382749911607032e+00 -9.7652721550904928e+00 0 0 0
603 201 2 4.0999999999999998e-01 7.1427041298553089e+00 -2.7805532952100602e+00 -8.1526472968421189e+00 0 0 0
613 205 1 -8.1999999999999995e-01 5.5669838653336310e+00 4.4341467131001622e-02 -8.4749259329474107e+00 0 0 0
614 205 2 4.0999999999999998e-01 6.0894485224043304e+00 -7.3919644150432795e-01 -8.8116386319823192e+00 0 0 0
615 205 2 4.0999999999999998e-01 4.6849019327396260e+00 -2.6947800653270448e-01 -8.1231784712545512e+00 0 0 0
619 207 1 -8.1999999999999995e-01 5.9571926284826322e+00 1.0432582261174232e+00 -5.7341491743822717e+00 0 0 0
620 207 2 4.0999999999999998e-01 5.9178218543981185e+00 8.1086054877102498e-01 -6.7061149404893214e+00 0 0 0
621 207 2 4.0999999999999998e-01 5.1697677618313396e+00 6.4441665736792153e-01 -5.2638689062688613e+00 0 0 0
627 209 2 4.0999999999999998e-01 5.4454446911334724e+00 -1.7548578410504003e+00 -5.3361942860171636e+00 0 0 0
640 214 1 -8.1999999999999995e-01 5.3564624494237183e+00 2.3475915334935618e+00 -9.6369393872288036e+00 0 0 0
641 214 2 4.0999999999999998e-01 6.1132740949120308e+00 2.7917156629028952e+00 -1.0116799833373815e+01 0 0 0
642 214 2 4.0999999999999998e-01 5.6977615199187550e+00 1.5460206435863295e+00 -9.1457404042428259e+00 0 0 0
434 145 2 4.0999999999999998e-01 1.0335863088956083e+01 4.3242011887257412e+00 -7.2109583820874805e+00 0 0 0
559 187 1 -8.1999999999999995e-01 -1.2554163662122999e+01 7.4883120656446742e+00 -4.7142392163028761e+00 0 0 0
560 187 2 4.0999999999999998e-01 -1.2422063900048455e+01 7.1043863802370026e+00 -5.6282559490560606e+00 0 0 0
561 187 2 4.0999999999999998e-01 1.2328848579929982e+01 8.3735732854320624e+00 -4.7877344830989284e+00 -1 0 0
132 44 2 4.0999999999999998e-01 -1.2129993318767472e+01 6.3700978738788727e+00 -7.9890857363606163e+00 1 0 0
22 8 1 -8.1999999999999995e-01 1.3769506262363826e+00 8.8883501710567572e+00 -1.0477732089545052e+01 0 0 0
23 8 2 4.0999999999999998e-01 2.0147633242525522e+00 8.9211948876263776e+00 -9.7080579248312482e+00 0 0 0
24 8 2 4.0999999999999998e-01 1.8381733630468950e+00 9.2053221317050777e+00 -1.1306635723805568e+01 0 0 0
262 88 1 -8.1999999999999995e-01 1.9700545023411919e+00 4.8099873463841014e+00 -8.0606015379193217e+00 0 0 0
263 88 2 4.0999999999999998e-01 1.6831082035617779e+00 4.8666544583067264e+00 -9.0170151655748256e+00 0 0 0
333 111 2 4.0999999999999998e-01 7.9538551668942681e-01 7.1732788651166999e+00 -5.3340142945811708e+00 0 0 0
343 115 1 -8.1999999999999995e-01 1.2918950906454505e+00 7.2089951205297069e+00 -6.9718716587475704e+00 0 0 0
344 115 2 4.0999999999999998e-01 5.6663960184190820e-01 7.4957768816422714e+00 -7.5980008671240507e+00 0 0 0
345 115 2 4.0999999999999998e-01 1.5139587848508604e+00 6.2478729592002580e+00 -7.1368210736310882e+00 0 0 0
565 189 1 -8.1999999999999995e-01 -4.8009538309368160e-01 8.2196685916886274e+00 -8.6279335990039190e+00 0 0 0
566 189 2 4.0999999999999998e-01 -1.1856863005411089e+00 8.9265513054936712e+00 -8.5756254212958751e+00 0 0 0
567 189 2 4.0999999999999998e-01 8.0689819927862061e-02 8.3680620916684738e+00 -9.4426586063406042e+00 0 0 0
526 176 1 -8.1999999999999995e-01 3.3491965400534571e+00 8.3412889986578129e+00 -8.5158141661849047e+00 0 0 0
527 176 2 4.0999999999999998e-01 2.6296274591597797e+00 8.0599718926769341e+00 -7.8807092974000339e+00 0 0 0
170 57 2 4.0999999999999998e-01 -1.6435441141842784e+00 4.6881188801656712e+00 -4.2777558894101126e+00 0 0 0
331 111 1 -8.1999999999999995e-01 3.9936096913801045e-01 7.1401001164176634e+00 -4.4162228694868979e+00 0 0 0
332 111 2 4.0999999999999998e-01 2.6807998118367671e-01 8.0713609546805571e+00 -4.0759362389352987e+00 0 0 0
130 44 1 -8.1999999999999995e-01 1.2646941341289542e+01 6.4934764390627393e+00 -7.1735377080954104e+00 0 0 0
131 44 2 4.0999999999999998e-01 1.1763575975521968e+01 6.0446326474130245e+00 -7.3094878905683647e+00 0 0 0
349 117 1 -8.1999999999999995e-01 5.6736233396815567e+00 8.0232557416563637e+00 -7.0218857588725996e+00 0 0 0
350 117 2 4.0999999999999998e-01 5.4347984314813527e+00 7.6422468969380368e+00 -6.1285373007118640e+00 0 0 0
351 117 2 4.0999999999999998e-01 6.5051329636882702e+00 8.5727171395186836e+00 -6.9384581955059037e+00 0 0 0
402 134 2 4.0999999999999998e-01 4.3851378516807404e+00 6.9876031849670746e+00 -4.3223602553339635e+00 0 0 0
433 145 1 -8.1999999999999995e-01 1.0228635100896154e+01 5.2801374630588462e+00 -7.4847541194429539e+00 0 0 0
435 145 2 4.0999999999999998e-01 9.6074243529181782e+00 5.3352863998125599e+00 -8.2666315727453608e+00 0 0 0
528 176 2 4.0999999999999998e-01 4.2366044089401722e+00 8.2920326430405531e+00 -8.0571655310160875e+00 0 0 0
583 195 1 -8.1999999999999995e-01 1.0154071156163093e+01 6.3172010693651046e+00 -4.8522941546061293e+00 0 0 0
584 195 2 4.0999999999999998e-01 1.0283982987837133e+01 5.8853360936594292e+00 -5.7449827337256352e+00 0 0 0
585 195 2 4.0999999999999998e-01 1.1040560441963708e+01 6.4250539053219740e+00 -4.4019794687248730e+00 0 0 0
259 87 1 -8.1999999999999995e-01 -5.0406856265750770e+00 -7.4849227103499265e+00 3.3876662828926776e+00 0 0 0
260 87 2 4.0999999999999998e-01 -4.6417400741100199e+00 -6.5864630048454949e+00 3.2035737151873640e+00 0 0 0
261 87 2 4.0999999999999998e-01 -4.4961000960675417e+00 -8.1907183895186328e+00 2.9342839704683481e+00 0 0 0
340 114 1 -8.1999999999999995e-01 -4.6291920189347788e+00 -9.6274743524799540e+00 1.6722714909798917e+00 0 0 0
341 114 2 4.0999999999999998e-01 -5.6283182934910094e+00 -9.5847896360473062e+00 1.6864645741894080e+00 0 0 0
342 114 2 4.0999999999999998e-01 -4.3193879045975461e+00 -1.0380031343516919e+01 2.2536107594911741e+00 0 0 0
362 121 2 4.0999999999999998e-01 -4.5871646713288019e+00 -4.3829157331942614e+00 3.1437728605198227e+00 0 0 0
415 139 1 -8.1999999999999995e-01 -7.3429980202965783e+00 -8.9877501714280257e+00 2.5125198602408556e+00 0 0 0
416 139 2 4.0999999999999998e-01 -6.7386393747849018e+00 -8.2278453270712948e+00 2.7524610075513980e+00 0 0 0
417 139 2 4.0999999999999998e-01 -8.1544893982329896e+00 -8.9655652445090261e+00 3.0967008660788284e+00 0 0 0
487 163 1 -8.1999999999999995e-01 -7.2404294111377947e+00 -6.1849255936706040e+00 -3.1364512170207028e+00 0 0 0
488 163 2 4.0999999999999998e-01 -6.4428592850647801e+00 -6.6122961575323167e+00 -2.7104085770248254e+00 0 0 0
489 163 2 4.0999999999999998e-01 -7.7140701733704518e+00 -5.6172483312167669e+00 -2.4628914084183791e+00 0 0 0
572 191 2 4.0999999999999998e-01 -3.4042158170408214e+00 -6.6529139839698770e+00 -4.1687783229942692e+00 0 0 0
133 45 1 -8.1999999999999995e-01 3.6722295169884074e+00 -5.1476714499393879e+00 -3.7489814257957566e+00 0 0 0
361 121 1 -8.1999999999999995e-01 -3.8981513426883154e+00 -5.0735206166741182e+00 2.9233156339169977e+00 0 0 0
363 121 2 4.0999999999999998e-01 -2.9868463910181902e+00 -4.7075314678929949e+00 3.1126593984939532e+00 0 0 0
3 1 2 4.0999999999999998e-01 2.3964428374583768e-01 -8.3664348377879136e+00 3.9221150364780115e+00 0 0 0
50 17 2 4.0999999999999998e-01 2.7861427875748266e+00 -5.2743709547091768e+00 3.9257840907107635e+00 0 0 0
135 45 2 4.0999999999999998e-01 3.0299151577082331e+00 -5.6744615378092966e+00 -3.1920249471726247e+00 0 0 0
148 50 1 -8.1999999999999995e-01 -1.2723544178581427e+00 -8.8515971666255879e+00 -2.4509698110492870e+00 0 0 0
149 50 2 4.0999999999999998e-01 -1.2441584806404471e+00 -9.7778930608824890e+00 -2.8270775052780941e+00 0 0 0
150 50 2 4.0999999999999998e-01 -1.3830073147256901e+00 -8.8981857274743650e+00 -1.4580634038581799e+00 0 0 0
177 59 2 4.0999999999999998e-01 -2.2372949206692212e+00 -5.4296292298814697e+00 -2.8424703220919287e+00 0 0 0
217 73 1 -8.1999999999999995e-01 2.4053423679593333e+00 -6.3265425814423768e+00 2.1965589166805408e+00 0 0 0
218 73 2 4.0999999999999998e-01 1.8242961128113446e+00 -6.7791182550195019e+00 2.8731962407377054e+00 0 0 0
219 73 2 4.0999999999999998e-01 1.8749118243029272e+00 -5.6285411392337403e+00 1.7151920321291918e+00 0 0 0
232 78 1 -8.1999999999999995e-01 8.6763701435022966e-01 -4.2655957498989636e+00 8.7915018838083014e-01 0 0 0
234 78 2 4.0999999999999998e-01 1.6250061941316751e+00 -3.8720744702247227e+00 3.5779621873530232e-01 0 0 0
346 116 1 -8.1999999999999995e-01 -7.4998613321323226e-01 -6.5620565342524184e+00 1.4174570257108172e+00 0 0 0
347 116 2 4.0999999999999998e-01 -4.1506224941155168e-01 -6.9133103222046772e+00 2.2919416471930898e+00 0 0 0
348 116 2 4.0999999999999998e-01 -2.8989315576593810e-01 -5.6994602472174112e+00 1.2064633656907109e+00 0 0 0
358 120 1 -8.1999999999999995e-01 -3.5320309698403296e+00 -5.6415011688209979e+00 2.4650990001767070e-01 0 0 0
359 120 2 4.0999999999999998e-01 -3.8060143407975922e+00 -5.5856419127635331e+00 1.2067648425123796e+00 0 0 0
360 120 2 4.0999999999999998e-01 -2.7800212720647828e+00 -5.0043512364333544e+00 7.6808259759401309e-02 0 0 0
376 126 1 -8.1999999999999995e-01 4.2078030290895363e-01 -6.5993601878004169e+00 -2.9838066180019229e+00 0 0 0
377 126 2 4.0999999999999998e-01 -1.4743563387120062e-01 -5.7791754855288850e+00 -3.0523950130011741e+00 0 0 0
378 126 2 4.0999999999999998e-01 -1.5707410360238860e-01 -7.3888306481706447e+00 -2.7762070222479611e+00 0 0 0
490 164 1 -8.1999999999999995e-01 -2.2111026142491941e+00 -8.5654920789575186e+00 3.8281168434963320e-02 0 0 0
491 164 2 4.0999999999999998e-01 -3.0396115292044783e+00 -8.8745105538709126e+00 5.0556777670778885e-01 0 0 0
492 164 2 4.0999999999999998e-01 -1.7468263741208059e+00 -7.8810133573214678e+00 6.0061049598583693e-01 0 0 0
547 183 1 -8.1999999999999995e-01 2.6943629039533157e+00 -6.6840637991315095e+00 -1.3926774824909121e+00 0 0 0
548 183 2 4.0999999999999998e-01 1.8549492945166772e+00 -6.6136279691081858e+00 -1.9318434278260899e+00 0 0 0
549 183 2 4.0999999999999998e-01 2.4788328449155355e+00 -7.0476860096355010e+00 -4.8625486384767136e-01 0 0 0
631 211 1 -8.1999999999999995e-01 -3.2974010756846734e+00 -6.7479203171286422e+00 -2.3181206835051587e+00 0 0 0
632 211 2 4.0999999999999998e-01 -2.7865327203616435e+00 -7.5978103342724985e+00 -2.4484138829166611e+00 0 0 0
633 211 2 4.0999999999999998e-01 -3.5045704991387741e+00 -6.6290480388063742e+00 -1.3469223534528698e+00 0 0 0
648 216 2 4.0999999999999998e-01 4.1193897714457837e+00 -7.6704749858777355e+00 -2.2878692103616771e+00 0 0 0
590 197 2 4.0999999999999998e-01 2.8662042997586568e+00 -4.9185265752919589e+00 -9.6886761366977225e-01 0 0 0
1 1 1 -8.1999999999999995e-01 5.1852616174405952e-01 -7.4115726935295516e+00 3.8184823801675840e+00 0 0 0
604 202 1 -8.1999999999999995e-01 7.4328461989306209e+00 -8.5874905129594712e+00 -2.0449476315227866e+00 0 0 0
606 202 2 4.0999999999999998e-01 8.0308441150526324e+00 -8.2445294399073994e+00 -2.7695530341240318e+00 0 0 0
646 216 1 -8.1999999999999995e-01 4.8167523405597432e+00 -7.9372250317959274e+00 -2.9533058957008755e+00 0 0 0
647 216 2 4.0999999999999998e-01 4.4593880669303712e+00 -7.8121094524751227e+00 -3.8790019122508106e+00 0 0 0
7 3 1 -8.1999999999999995e-01 5.1660984184207432e+00 -6.4409966239662868e+00 2.7230027930429870e+00 0 0 0
8 3 2 4.0999999999999998e-01 5.7204601451294668e+00 -6.2884912066354923e+00 1.9046495754072925e+00 0 0 0
9 3 2 4.0999999999999998e-01 4.1964850690596389e+00 -6.3938590994703590e+00 2.4823695791757494e+00 0 0 0
70 24 1 -8.1999999999999995e-01 9.5845711791478241e+00 -5.8706570729559404e+00 9.2810108731368679e-01 0 0 0
71 24 2 4.0999999999999998e-01 1.0485706109248712e+01 -5.7679271885600434e+00 1.3496212991059924e+00 0 0 0
72 24 2 4.0999999999999998e-01 9.5242624238102405e+00 -5.2811689910282817e+00 1.2240707553668528e-01 0 0 0
298 100 1 -8.1999999999999995e-01 6.3977922822917268e+00 -4.8261208593566867e+00 -2.9503182793283393e+00 0 0 0
299 100 2 4.0999999999999998e-01 5.5190874344901726e+00 -5.1192933850040587e+00 -3.3274190055894444e+00 0 0 0
300 100 2 4.0999999999999998e-01 6.2558134080266168e+00 -4.4309023364691189e+00 -2.0426170606438738e+00 0 0 0
409 137 1 -8.1999999999999995e-01 8.5686176398511886e+00 -8.5457885773916615e+00 5.6871793694437756e-01 0 0 0
410 137 2 4.0999999999999998e-01 8.1824509131857592e+00 -8.7171496027983757e+00 -3.3780699808241543e-01 0 0 0
411 137 2 4.0999999999999998e-01 8.8991282745089588e+00 -7.6031019846381858e+00 6.1751204858474829e-01 0 0 0
499 167 1 -8.1999999999999995e-01 9.1402943496420566e+00 -4.4199292864452584e+00 -1.2972543152104290e+00 0 0 0
501 167 2 4.0999999999999998e-01 8.7282007247028073e+00 -4.6645635852840552e+00 -2.1750981448625009e+00 0 0 0
511 171 1 -8.1999999999999995e-01 6.8178619694189120e+00 -6.1834003803408235e+00 6.7957093558530168e-01 0 0 0
512 171 2 4.0999999999999998e-01 6.7515413024275599e+00 -6.8924609819862388e+00 -2.2647836826356738e-02 0 0 0
513 171 2 4.0999999999999998e-01 7.7413754596662070e+00 -6.1797800590961449e+00 1.0634818265519641e+00 0 0 0
568 190 1 -8.1999999999999995e-01 7.8426449322755420e+00 -9.4129257939896416e+00 3.2762760813208818e+00 0 0 0
569 190 2 4.0999999999999998e-01 8.0003265406801685e+00 -9.1367706261109554e+00 2.3280399566962409e+00 0 0 0
570 190 2 4.0999999999999998e-01 7.5999911299091014e+00 -1.0382753470769790e+01 3.3050872141419649e+00 0 0 0
605 202 2 4.0999999999999998e-01 6.4777078377545454e+00 -8.4649410151563096e+00 -2.3150763189692931e+00 0 0 0
68 23 2 4.0999999999999998e-01 6.1797193513764253e+00 -4.7636098099926878e+00 1.9210926739658518e-01 0 0 0
83 28 2 4.0999999999999998e-01 -8.0246193232942318e+00 2.0170699748267644e+00 -3.8907887797568126e+00 0 0 0
26 9 2 4.0999999999999998e-01 -7.9908630178517432e+00 3.9919428999575288e+00 3.2300034579514936e-01 0 0 0
55 19 1 -8.1999999999999995e-01 -7.9074087503164900e+00 2.1505218043707792e+00 1.1625091287380052e-01 0 0 0
56 19 2 4.0999999999999998e-01 -8.2355101631030632e+00 1.4607845585385792e+00 7.6191986783443255e-01 0 0 0
57 19 2 4.0999999999999998e-01 -6.9435327618075817e+00 1.9818208260160404e+00 -9.0534957924893078e-02 0 0 0
91 31 1 -8.1999999999999995e-01 -5.1026044953982455e+00 2.3401804296991848e+00 4.1308628723582430e-02 0 0 0
93 31 2 4.0999999999999998e-01 -5.2187834966508602e+00 3.2390520262276947e+00 -3.8155163785177137e-01 0 0 0
174 58 2 4.0999999999999998e-01 -4.4270439965787283e+00 -2.5531114320297768e+00 6.1346382882197226e-01 0 0 0
247 83 1 -8.1999999999999995e-01 -9.0928578792651642e+00 2.2561927289848622e+00 -2.4550827673517226e+00 0 0 0
248 83 2 4.0999999999999998e-01 -8.6863362140030187e+00 2.1913605592256431e+00 -1.5435927698511875e+00 0 0 0
249 83 2 4.0999999999999998e-01 -9.9152255903342201e+00 2.8238864039944787e+00 -2.4137110323987372e+00 0 0 0
269 90 2 4.0999999999999998e-01 -7.1410435609873577e+00 1.9113476497053181e+00 3.7291490514176537e+00 0 0 0
373 125 1 -8.1999999999999995e-01 -5.7144443985499880e+00 2.1546811724657680e+00 2.8156422816779383e+00 0 0 0
374 125 2 4.0999999999999998e-01 -5.5267143406263139e+00 2.3510323223432934e+00 1.8531030138321185e+00 0 0 0
544 182 1 -8.1999999999999995e-01 -5.5491660497100117e+00 -3.0679293256796427e+00 3.6833233165704549e+00 0 0 0
546 182 2 4.0999999999999998e-01 -4.8587342797055024e+00 -2.3526965008284630e+00 3.7929712451809223e+00 0 0 0
375 125 2 4.0999999999999998e-01 -5.3471574680175964e+00 2.8911992653722329e+00 3.3839008865500944e+00 0 0 0
134 45 2 4.0999999999999998e-01 3.4399811167373944e+00 -4.1762807025673787e+00 -3.6966661769178462e+00 0 0 0
176 59 2 4.0999999999999998e-01 -1.9103888176296060e+00 -4.1121506367624576e+00 -3.7506250221661510e+00 0 0 0