 argument  1 = CH4.nw
                                         
                                         


              Northwest Computational Chemistry Package (NWChem) 6.3
              ------------------------------------------------------


                    Environmental Molecular Sciences Laboratory
                       Pacific Northwest National Laboratory
                                Richland, WA 99352

                              Copyright (c) 1994-2012
                       Pacific Northwest National Laboratory
                            Battelle Memorial Institute

             NWChem is an open-source computational chemistry package
                        distributed under the terms of the
                      Educational Community License (ECL) 2.0
             A copy of the license is included with this distribution
                              in the LICENSE.TXT file

                                  ACKNOWLEDGMENT
                                  --------------

            This software and its documentation were developed at the
            EMSL at Pacific Northwest National Laboratory, a multiprogram
            national laboratory, operated for the U.S. Department of Energy
            by Battelle under Contract Number DE-AC05-76RL01830. Support
            for this work was provided by the Department of Energy Office
            of Biological and Environmental Research, Office of Basic
            Energy Sciences, and the Office of Advanced Scientific Computing.


           Job information
           ---------------

    hostname        = shyuep.mit.edu
    program         = ../../nwchem-6.3/bin/MACX/nwchem
    date            = Sat Jun 15 22:50:45 2013

    compiled        = Sat_May_25_22:55:36_2013
    source          = /Users/shyue/nwchem-6.3
    nwchem branch   = 6.3
    nwchem revision = 24252
    ga revision     = N/A
    input           = CH4.nw
    prefix          = H4C1.
    data base       = ./H4C1.db
    status          = startup
    nproc           =        1
    time left       =     -1s



           Memory information
           ------------------

    heap     =   13107201 doubles =    100.0 Mbytes
    stack    =   13107201 doubles =    100.0 Mbytes
    global   =   26214400 doubles =    200.0 Mbytes (distinct from heap & stack)
    total    =   52428802 doubles =    400.0 Mbytes
    verify   = yes
    hardfail = no 


           Directory information
           ---------------------

  0 permanent = .
  0 scratch   = .




                                NWChem Input Module
                                -------------------



 Scaling coordinates for geometry "geometry" by  1.889725989
 (inverse scale =  0.529177249)

 TD  symmetry detected

          ------
          auto-z
          ------
  Looking for out-of-plane bends


                             Geometry "geometry" -> ""
                             -------------------------

 Output coordinates in angstroms (scale by  1.889725989 to convert to a.u.)

  No.       Tag          Charge          X              Y              Z
 ---- ---------------- ---------- -------------- -------------- --------------
    1 C                    6.0000     0.00000000     0.00000000     0.00000000
    2 H                    1.0000     0.62873455     0.62873455    -0.62873455
    3 H                    1.0000    -0.62873455    -0.62873455    -0.62873455
    4 H                    1.0000     0.62873455    -0.62873455     0.62873455
    5 H                    1.0000    -0.62873455     0.62873455     0.62873455

      Atomic Mass 
      ----------- 

      C                 12.000000
      H                  1.007825


 Effective nuclear repulsion energy (a.u.)      13.4477252140

            Nuclear Dipole moment (a.u.) 
            ----------------------------
        X                 Y               Z
 ---------------- ---------------- ----------------
     0.0000000000     0.0000000000     0.0000000000

      Symmetry information
      --------------------

 Group name              Td       
 Group number             42
 Group order              24
 No. of unique centers     2

      Symmetry unique atoms

     1    2



                                Z-matrix (autoz)
                                -------- 

 Units are Angstrom for bonds and degrees for angles

      Type          Name      I     J     K     L     M      Value
      ----------- --------  ----- ----- ----- ----- ----- ----------
    1 Stretch                  1     2                       1.08900
    2 Stretch                  1     3                       1.08900
    3 Stretch                  1     4                       1.08900
    4 Stretch                  1     5                       1.08900
    5 Bend                     2     1     3               109.47122
    6 Bend                     2     1     4               109.47122
    7 Bend                     2     1     5               109.47122
    8 Bend                     3     1     4               109.47122
    9 Bend                     3     1     5               109.47122
   10 Bend                     4     1     5               109.47122


            XYZ format geometry
            -------------------
     5
 geometry
 C                     0.00000000     0.00000000     0.00000000
 H                     0.62873455     0.62873455    -0.62873455
 H                    -0.62873455    -0.62873455    -0.62873455
 H                     0.62873455    -0.62873455     0.62873455
 H                    -0.62873455     0.62873455     0.62873455

 ==============================================================================
                                internuclear distances
 ------------------------------------------------------------------------------
       center one      |      center two      | atomic units |  angstroms
 ------------------------------------------------------------------------------
    2 H                |   1 C                |     2.05791  |     1.08900
    3 H                |   1 C                |     2.05791  |     1.08900
    4 H                |   1 C                |     2.05791  |     1.08900
    5 H                |   1 C                |     2.05791  |     1.08900
 ------------------------------------------------------------------------------
                         number of included internuclear distances:          4
 ==============================================================================



 ==============================================================================
                                 internuclear angles
 ------------------------------------------------------------------------------
        center 1       |       center 2       |       center 3       |  degrees
 ------------------------------------------------------------------------------
    2 H                |   1 C                |   3 H                |   109.47
    2 H                |   1 C                |   4 H                |   109.47
    2 H                |   1 C                |   5 H                |   109.47
    3 H                |   1 C                |   4 H                |   109.47
    3 H                |   1 C                |   5 H                |   109.47
    4 H                |   1 C                |   5 H                |   109.47
 ------------------------------------------------------------------------------
                            number of included internuclear angles:          6
 ==============================================================================



                                 H4C1 dft optimize
                                 -----------------
                      Basis "ao basis" -> "" (cartesian)
                      -----
  H (Hydrogen)
  ------------
            Exponent  Coefficients 
       -------------- ---------------------------------------------------------
  1 S  1.30100000E+01  0.019685
  1 S  1.96200000E+00  0.137977
  1 S  4.44600000E-01  0.478148

  2 S  1.22000000E-01  1.000000

  3 S  2.97400000E-02  1.000000

  4 P  7.27000000E-01  1.000000

  5 P  1.41000000E-01  1.000000

  C (Carbon)
  ----------
            Exponent  Coefficients 
       -------------- ---------------------------------------------------------
  1 S  6.66500000E+03  0.000692
  1 S  1.00000000E+03  0.005329
  1 S  2.28000000E+02  0.027077
  1 S  6.47100000E+01  0.101718
  1 S  2.10600000E+01  0.274740
  1 S  7.49500000E+00  0.448564
  1 S  2.79700000E+00  0.285074
  1 S  5.21500000E-01  0.015204

  2 S  6.66500000E+03 -0.000146
  2 S  1.00000000E+03 -0.001154
  2 S  2.28000000E+02 -0.005725
  2 S  6.47100000E+01 -0.023312
  2 S  2.10600000E+01 -0.063955
  2 S  7.49500000E+00 -0.149981
  2 S  2.79700000E+00 -0.127262
  2 S  5.21500000E-01  0.544529

  3 S  1.59600000E-01  1.000000

  4 S  4.69000000E-02  1.000000

  5 P  9.43900000E+00  0.038109
  5 P  2.00200000E+00  0.209480
  5 P  5.45600000E-01  0.508557

  6 P  1.51700000E-01  1.000000

  7 P  4.04100000E-02  1.000000

  8 D  5.50000000E-01  1.000000

  9 D  1.51000000E-01  1.000000



 Summary of "ao basis" -> "" (cartesian)
 ------------------------------------------------------------------------------
       Tag                 Description            Shells   Functions and Types
 ---------------- ------------------------------  ------  ---------------------
 H                        aug-cc-pVDZ                5        9   3s2p
 C                        aug-cc-pVDZ                9       25   4s3p2d




                           NWChem Geometry Optimization
                           ----------------------------




                                 H4C1 dft optimize


 maximum gradient threshold         (gmax) =   0.000450
 rms gradient threshold             (grms) =   0.000300
 maximum cartesian step threshold   (xmax) =   0.001800
 rms cartesian step threshold       (xrms) =   0.001200
 fixed trust radius                (trust) =   0.300000
 maximum step size to saddle      (sadstp) =   0.100000
 energy precision                  (eprec) =   5.0D-06
 maximum number of steps          (nptopt) =   20
 initial hessian option           (inhess) =    0
 line search option               (linopt) =    1
 hessian update option            (modupd) =    1
 saddle point option              (modsad) =    0
 initial eigen-mode to follow     (moddir) =    0
 initial variable to follow       (vardir) =    0
 follow first negative mode     (firstneg) =    T
 apply conjugacy                    (opcg) =    F
 source of zmatrix                         =   autoz   


          -------------------
          Energy Minimization
          -------------------


 Names of Z-matrix variables 
    1              2              3              4              5         
    6              7              8              9             10         

 Variables with the same non-blank name are constrained to be equal


 Using old Hessian from previous optimization

          --------
          Step   0
          --------


                         Geometry "geometry" -> "geometry"
                         ---------------------------------

 Output coordinates in angstroms (scale by  1.889725989 to convert to a.u.)

  No.       Tag          Charge          X              Y              Z
 ---- ---------------- ---------- -------------- -------------- --------------
    1 C                    6.0000     0.00000000     0.00000000     0.00000000
    2 H                    1.0000     0.62873455     0.62873455    -0.62873455
    3 H                    1.0000    -0.62873455    -0.62873455    -0.62873455
    4 H                    1.0000     0.62873455    -0.62873455     0.62873455
    5 H                    1.0000    -0.62873455     0.62873455     0.62873455

      Atomic Mass 
      ----------- 

      C                 12.000000
      H                  1.007825


 Effective nuclear repulsion energy (a.u.)      13.4477252140

            Nuclear Dipole moment (a.u.) 
            ----------------------------
        X                 Y               Z
 ---------------- ---------------- ----------------
     0.0000000000     0.0000000000     0.0000000000

      Symmetry information
      --------------------

 Group name              Td       
 Group number             42
 Group order              24
 No. of unique centers     2

      Symmetry unique atoms

     1    2


                                 NWChem DFT Module
                                 -----------------


                                 H4C1 dft optimize


  Caching 1-el integrals 

            General Information
            -------------------
          SCF calculation type: DFT
          Wavefunction type:  closed shell.
          No. of atoms     :     5
          No. of electrons :    10
           Alpha electrons :     5
            Beta electrons :     5
          Charge           :     0
          Spin multiplicity:     1
          Use of symmetry is: on ; symmetry adaption is: on 
          Maximum number of iterations:  30
          AO basis - number of functions:    61
                     number of shells:    29
          Convergence on energy requested: 1.00D-06
          Convergence on density requested: 1.00D-05
          Convergence on gradient requested: 5.00D-04

              XC Information
              --------------
                         B3LYP Method XC Potential
                     Hartree-Fock (Exact) Exchange  0.200          
                        Slater Exchange Functional  0.800 local    
                    Becke 1988 Exchange Functional  0.720 non-local
              Lee-Yang-Parr Correlation Functional  0.810          
                  VWN I RPA Correlation Functional  0.190 local    

             Grid Information
             ----------------
          Grid used for XC integration:  medium    
          Radial quadrature: Mura-Knowles        
          Angular quadrature: Lebedev. 
          Tag              B.-S. Rad. Rad. Pts. Rad. Cut. Ang. Pts.
          ---              ---------- --------- --------- ---------
          C                   0.70       49          11.0       434
          H                   0.35       45          12.0       434
          Grid pruning is: on 
          Number of quadrature shells:    94
          Spatial weights used:  Erf1

          Convergence Information
          -----------------------
          Convergence aids based upon iterative change in 
          total energy or number of iterations. 
          Levelshifting, if invoked, occurs when the 
          HOMO/LUMO gap drops below (HL_TOL): 1.00D-02
          DIIS, if invoked, will attempt to extrapolate 
          using up to (NFOCK): 10 stored Fock matrices.

                    Damping( 0%)  Levelshifting(0.5)       DIIS
                  --------------- ------------------- ---------------
          dE  on:    start            ASAP                start   
          dE off:    2 iters         30 iters            30 iters 


      Screening Tolerance Information
      -------------------------------
          Density screening/tol_rho: 1.00D-10
          AO Gaussian exp screening on grid/accAOfunc:  14
          CD Gaussian exp screening on grid/accCDfunc:  20
          XC Gaussian exp screening on grid/accXCfunc:  20
          Schwarz screening/accCoul: 1.00D-08


      Superposition of Atomic Density Guess
      -------------------------------------

 Sum of atomic energies:         -39.66436046

      Non-variational initial energy
      ------------------------------

 Total energy =     -40.249017
 1-e energy   =     -78.229125
 2-e energy   =      24.532383
 HOMO         =      -0.523803
 LUMO         =       0.020375


      Symmetry analysis of molecular orbitals - initial
      -------------------------------------------------

  Numbering of irreducible representations: 

     1 a1          2 a2          3 e           4 t1          5 t2      

  Orbital symmetries:

     1 a1          2 a1          3 t2          4 t2          5 t2      
     6 a1          7 t2          8 t2          9 t2         10 a1      
    11 t2         12 t2         13 t2         14 t2         15 t2      

   Time after variat. SCF:      0.2
   Time prior to 1st pass:      0.2

 Integral file          = ./H4C1.aoints.0
 Record size in doubles =  65536        No. of integs per rec  =  43688
 Max. records in memory =      5        Max. records in file   = 189277
 No. of bits per label  =      8        No. of bits per value  =     64


 #quartets = 1.419D+04 #integrals = 2.967D+05 #direct =  0.0% #cached =100.0%


 Grid_pts file          = ./H4C1.gridpts.0
 Record size in doubles =  12289        No. of grid_pts per rec  =   3070
 Max. records in memory =     16        Max. recs in file   =   1009390


           Memory utilization after 1st SCF pass: 
           Heap Space remaining (MW):       12.58            12580653
          Stack Space remaining (MW):       13.11            13106829

   convergence    iter        energy       DeltaE   RMS-Dens  Diis-err    time
 ---------------- ----- ----------------- --------- --------- ---------  ------
 d= 0,ls=0.0,diis     1    -40.5103363337 -5.40D+01  1.94D-02  1.15D-01     0.4
 d= 0,ls=0.0,diis     2    -40.5195481185 -9.21D-03  2.37D-03  1.26D-02     0.4
 d= 0,ls=0.0,diis     3    -40.5200758508 -5.28D-04  9.79D-04  7.78D-03     0.5
 d= 0,ls=0.0,diis     4    -40.5210614829 -9.86D-04  4.44D-05  4.04D-06     0.5
 d= 0,ls=0.0,diis     5    -40.5210620878 -6.05D-07  4.20D-06  8.66D-09     0.6
  Resetting Diis
 d= 0,ls=0.0,diis     6    -40.5210620892 -1.31D-09  1.10D-07  8.75D-12     0.6
 d= 0,ls=0.0,diis     7    -40.5210620892 -3.10D-12  6.75D-09  1.92D-15     0.7


         Total DFT energy =      -40.521062089160
      One electron energy =      -79.812837753733
           Coulomb energy =       32.743810103863
    Exchange-Corr. energy =       -6.899759653314
 Nuclear repulsion energy =       13.447725214025

 Numeric. integr. density =       10.000004834631

     Total iterative time =      0.5s



                  Occupations of the irreducible representations
                  ----------------------------------------------

                     irrep           alpha         beta
                     --------     --------     --------
                     a1                2.0          2.0
                     a2                0.0          0.0
                     e                 0.0          0.0
                     t1                0.0          0.0
                     t2                3.0          3.0


                       DFT Final Molecular Orbital Analysis
                       ------------------------------------

 Vector    1  Occ=2.000000D+00  E=-1.017120D+01  Symmetry=a1
              MO Center= -4.2D-17,  4.3D-17, -5.1D-17, r^2= 2.8D-02
   Bfn.  Coefficient  Atom+Function         Bfn.  Coefficient  Atom+Function  
  ----- ------------  ---------------      ----- ------------  ---------------
     1      1.004178  1 C  s          

 Vector    2  Occ=2.000000D+00  E=-6.980661D-01  Symmetry=a1
              MO Center= -1.9D-16,  3.4D-17, -6.8D-16, r^2= 1.0D+00
   Bfn.  Coefficient  Atom+Function         Bfn.  Coefficient  Atom+Function  
  ----- ------------  ---------------      ----- ------------  ---------------
     2      0.375604  1 C  s                 26      0.189674  2 H  s          
    35      0.189674  3 H  s                 44      0.189674  4 H  s          
    53      0.189674  5 H  s          

 Vector    3  Occ=2.000000D+00  E=-3.946995D-01  Symmetry=t2
              MO Center=  2.8D-01, -7.7D-02,  7.5D-02, r^2= 1.2D+00
   Bfn.  Coefficient  Atom+Function         Bfn.  Coefficient  Atom+Function  
  ----- ------------  ---------------      ----- ------------  ---------------
    45      0.458116  4 H  s                 44      0.370201  4 H  s          
    27     -0.349893  2 H  s                  7      0.313696  1 C  pz         
     6     -0.309200  1 C  py                26     -0.282746  2 H  s          

 Vector    4  Occ=2.000000D+00  E=-3.946995D-01  Symmetry=t2
              MO Center= -1.7D-01, -1.7D-01, -2.3D-01, r^2= 1.2D+00
   Bfn.  Coefficient  Atom+Function         Bfn.  Coefficient  Atom+Function  
  ----- ------------  ---------------      ----- ------------  ---------------
    36      0.497916  3 H  s                 35      0.402363  3 H  s          
     5     -0.285594  1 C  px                 6     -0.281039  1 C  py         
    27     -0.237110  2 H  s                  7     -0.201056  1 C  pz         
    26     -0.191607  2 H  s          

 Vector    5  Occ=2.000000D+00  E=-3.946995D-01  Symmetry=t2
              MO Center= -1.2D-01,  2.4D-01,  1.6D-01, r^2= 1.2D+00
   Bfn.  Coefficient  Atom+Function         Bfn.  Coefficient  Atom+Function  
  ----- ------------  ---------------      ----- ------------  ---------------
    54      0.484523  5 H  s                 53      0.391540  5 H  s          
     5     -0.335329  1 C  px                27     -0.273825  2 H  s          
     7      0.249282  1 C  pz                26     -0.221276  2 H  s          
     6      0.162427  1 C  py                45     -0.161158  4 H  s          

 Vector    6  Occ=0.000000D+00  E=-6.772852D-03  Symmetry=a1
              MO Center=  1.1D-14, -2.1D-14, -1.0D-13, r^2= 1.2D+01
   Bfn.  Coefficient  Atom+Function         Bfn.  Coefficient  Atom+Function  
  ----- ------------  ---------------      ----- ------------  ---------------
     4      2.204281  1 C  s                  3      2.160671  1 C  s          
    27     -0.891135  2 H  s                 36     -0.891135  3 H  s          
    45     -0.891135  4 H  s                 54     -0.891135  5 H  s          
    28     -0.626747  2 H  s                 37     -0.626747  3 H  s          
    46     -0.626747  4 H  s                 55     -0.626747  5 H  s          

 Vector    7  Occ=0.000000D+00  E= 3.162542D-02  Symmetry=t2
              MO Center=  3.5D-02,  1.5D-02, -9.0D-01, r^2= 1.6D+01
   Bfn.  Coefficient  Atom+Function         Bfn.  Coefficient  Atom+Function  
  ----- ------------  ---------------      ----- ------------  ---------------
    28      3.089968  2 H  s                 37     -3.018230  3 H  s          
    46     -1.231743  4 H  s                 55      1.160005  5 H  s          
    12     -0.895681  1 C  py                11     -0.391621  1 C  px         
     9     -0.151819  1 C  py         

 Vector    8  Occ=0.000000D+00  E= 3.162542D-02  Symmetry=t2
              MO Center= -3.4D-01,  7.7D-01,  7.8D-01, r^2= 1.5D+01
   Bfn.  Coefficient  Atom+Function         Bfn.  Coefficient  Atom+Function  
  ----- ------------  ---------------      ----- ------------  ---------------
    55      3.702864  5 H  s                 46     -1.985757  4 H  s          
    28     -1.952115  2 H  s                 11      0.829906  1 C  px         
    12     -0.368970  1 C  py                13     -0.361880  1 C  pz         
    37      0.235008  3 H  s          

 Vector    9  Occ=0.000000D+00  E= 3.162542D-02  Symmetry=t2
              MO Center=  3.1D-01, -7.8D-01,  1.1D-01, r^2= 1.6D+01
   Bfn.  Coefficient  Atom+Function         Bfn.  Coefficient  Atom+Function  
  ----- ------------  ---------------      ----- ------------  ---------------
    46      3.268010  4 H  s                 37     -2.641093  3 H  s          
    28     -1.667830  2 H  s                 55      1.040913  5 H  s          
    13     -0.908104  1 C  pz                11     -0.337238  1 C  px         
    10     -0.153925  1 C  pz         

 Vector   10  Occ=0.000000D+00  E= 9.382850D-02  Symmetry=t2
              MO Center= -3.1D-02,  2.8D-01, -7.4D-02, r^2= 1.2D+01
   Bfn.  Coefficient  Atom+Function         Bfn.  Coefficient  Atom+Function  
  ----- ------------  ---------------      ----- ------------  ---------------
    46      4.415509  4 H  s                 37     -3.777060  3 H  s          
    11     -3.266909  1 C  px                45      2.333434  4 H  s          
    36     -1.996037  3 H  s                 55     -1.990385  5 H  s          
    13     -1.373686  1 C  pz                28      1.351936  2 H  s          
     8     -1.096499  1 C  px                54     -1.051845  5 H  s          

 Vector   11  Occ=0.000000D+00  E= 9.382850D-02  Symmetry=t2
              MO Center= -3.8D-03, -4.3D-04,  8.9D-02, r^2= 1.2D+01
   Bfn.  Coefficient  Atom+Function         Bfn.  Coefficient  Atom+Function  
  ----- ------------  ---------------      ----- ------------  ---------------
    12      3.539904  1 C  py                28     -3.492164  2 H  s          
    37      3.461799  3 H  s                 46      2.787596  4 H  s          
    55     -2.757230  5 H  s                 27     -1.845480  2 H  s          
    36      1.829433  3 H  s                 45      1.473142  4 H  s          
    54     -1.457095  5 H  s                  9      1.188127  1 C  py         

 Vector   12  Occ=0.000000D+00  E= 9.382850D-02  Symmetry=t2
              MO Center=  3.5D-02, -2.8D-01, -1.4D-02, r^2= 1.2D+01
   Bfn.  Coefficient  Atom+Function         Bfn.  Coefficient  Atom+Function  
  ----- ------------  ---------------      ----- ------------  ---------------
    55     -4.254439  5 H  s                 28      3.954904  2 H  s          
    13      3.286819  1 C  pz                54     -2.248314  5 H  s          
    27      2.090021  2 H  s                 37      1.847693  3 H  s          
    46     -1.548157  4 H  s                 11     -1.363276  1 C  px         
    10      1.103182  1 C  pz                36      0.976438  3 H  s          

 Vector   13  Occ=0.000000D+00  E= 1.041195D-01  Symmetry=a1
              MO Center=  9.7D-14,  1.7D-14, -3.2D-13, r^2= 1.6D+01
   Bfn.  Coefficient  Atom+Function         Bfn.  Coefficient  Atom+Function  
  ----- ------------  ---------------      ----- ------------  ---------------
     3      9.905029  1 C  s                  4      9.573082  1 C  s          
    27     -4.521232  2 H  s                 36     -4.521232  3 H  s          
    45     -4.521232  4 H  s                 54     -4.521232  5 H  s          
    28     -1.413970  2 H  s                 37     -1.413970  3 H  s          
    46     -1.413970  4 H  s                 55     -1.413970  5 H  s          

 Vector   14  Occ=0.000000D+00  E= 1.741856D-01  Symmetry=t2
              MO Center=  1.1D-02,  1.1D-01, -1.9D-01, r^2= 7.8D+00
   Bfn.  Coefficient  Atom+Function         Bfn.  Coefficient  Atom+Function  
  ----- ------------  ---------------      ----- ------------  ---------------
    28      2.545699  2 H  s                 37     -2.290395  3 H  s          
    55     -2.078971  5 H  s                 46      1.823667  4 H  s          
    11     -1.686708  1 C  px                27     -0.628561  2 H  s          
    36      0.565524  3 H  s                 54      0.513321  5 H  s          
    45     -0.450284  4 H  s                  5      0.364995  1 C  px         

 Vector   15  Occ=0.000000D+00  E= 1.741856D-01  Symmetry=t2
              MO Center=  1.3D-01, -1.2D-01,  8.4D-03, r^2= 7.8D+00
   Bfn.  Coefficient  Atom+Function         Bfn.  Coefficient  Atom+Function  
  ----- ------------  ---------------      ----- ------------  ---------------
    46      2.488089  4 H  s                 28     -2.199391  2 H  s          
    37     -2.182092  3 H  s                 55      1.893394  5 H  s          
    13     -1.691385  1 C  pz                45     -0.614337  4 H  s          
    27      0.543054  2 H  s                 36      0.538783  3 H  s          
    54     -0.467500  5 H  s                  7      0.366007  1 C  pz         

 Vector   16  Occ=0.000000D+00  E= 1.741856D-01  Symmetry=t2
              MO Center= -1.4D-01,  1.4D-02,  1.9D-01, r^2= 7.7D+00
   Bfn.  Coefficient  Atom+Function         Bfn.  Coefficient  Atom+Function  
  ----- ------------  ---------------      ----- ------------  ---------------
    55      2.573658  5 H  s                 46     -2.239292  4 H  s          
    37     -2.126816  3 H  s                 28      1.792450  2 H  s          
    12     -1.685450  1 C  py                54     -0.635465  5 H  s          
    45      0.552906  4 H  s                 36      0.525134  3 H  s          
    27     -0.442576  2 H  s                  6      0.364722  1 C  py         

 Vector   17  Occ=0.000000D+00  E= 2.016531D-01  Symmetry=e
              MO Center= -2.5D-16,  4.4D-15,  3.1D-15, r^2= 5.0D+00
   Bfn.  Coefficient  Atom+Function         Bfn.  Coefficient  Atom+Function  
  ----- ------------  ---------------      ----- ------------  ---------------
    23      0.900563  1 C  dyy               25     -0.897133  1 C  dzz        
    33     -0.719630  2 H  py                34     -0.716890  2 H  pz         
    42      0.719630  3 H  py                43     -0.716890  3 H  pz         
    51      0.719630  4 H  py                52      0.716890  4 H  pz         
    60     -0.719630  5 H  py                61      0.716890  5 H  pz         

 Vector   18  Occ=0.000000D+00  E= 2.016531D-01  Symmetry=e
              MO Center=  4.5D-15, -1.0D-16,  2.9D-15, r^2= 5.0D+00
   Bfn.  Coefficient  Atom+Function         Bfn.  Coefficient  Atom+Function  
  ----- ------------  ---------------      ----- ------------  ---------------
    20      1.037900  1 C  dxx               32     -0.829375  2 H  px         
    41      0.829375  3 H  px                50     -0.829375  4 H  px         
    59      0.829375  5 H  px                25     -0.521920  1 C  dzz        
    23     -0.515980  1 C  dyy               34     -0.417061  2 H  pz         
    43     -0.417061  3 H  pz                52      0.417061  4 H  pz         

 Vector   19  Occ=0.000000D+00  E= 2.905182D-01  Symmetry=a1
              MO Center=  3.9D-13, -5.8D-13,  2.2D-13, r^2= 8.6D+00
   Bfn.  Coefficient  Atom+Function         Bfn.  Coefficient  Atom+Function  
  ----- ------------  ---------------      ----- ------------  ---------------
     3     17.181739  1 C  s                  4     11.261636  1 C  s          
    27     -8.295991  2 H  s                 36     -8.295991  3 H  s          
    45     -8.295991  4 H  s                 54     -8.295991  5 H  s          
    20      2.535807  1 C  dxx               23      2.535807  1 C  dyy        
    25      2.535807  1 C  dzz               28     -1.052428  2 H  s          

 Vector   20  Occ=0.000000D+00  E= 3.370131D-01  Symmetry=t2
              MO Center= -8.7D-02, -9.6D-02,  5.8D-01, r^2= 7.3D+00
   Bfn.  Coefficient  Atom+Function         Bfn.  Coefficient  Atom+Function  
  ----- ------------  ---------------      ----- ------------  ---------------
    27      6.591100  2 H  s                 36     -5.623003  3 H  s          
     8     -3.075927  1 C  px                28      2.884826  2 H  s          
     9     -2.808577  1 C  py                37     -2.461105  3 H  s          
    11     -2.351717  1 C  px                12     -2.147313  1 C  py         
    24      1.184254  1 C  dyz               22      1.081323  1 C  dxz        

 Vector   21  Occ=0.000000D+00  E= 3.370131D-01  Symmetry=t2
              MO Center=  2.1D-01, -1.8D-01, -5.5D-01, r^2= 7.3D+00
   Bfn.  Coefficient  Atom+Function         Bfn.  Coefficient  Atom+Function  
  ----- ------------  ---------------      ----- ------------  ---------------
    54      7.001461  5 H  s                 45     -4.908278  4 H  s          
     9     -3.079208  1 C  py                55      3.064435  5 H  s          
     8      2.658659  1 C  px                12     -2.354226  1 C  py         
    46     -2.148280  4 H  s                 11      2.032692  1 C  px         
    36     -1.483046  3 H  s                 22      1.185518  1 C  dxz        

 Vector   22  Occ=0.000000D+00  E= 3.370131D-01  Symmetry=t2
              MO Center= -1.2D-01,  2.7D-01, -3.0D-02, r^2= 7.6D+00
   Bfn.  Coefficient  Atom+Function         Bfn.  Coefficient  Atom+Function  
  ----- ------------  ---------------      ----- ------------  ---------------
    45      5.712148  4 H  s                 36     -4.790085  3 H  s          
    10     -4.041343  1 C  pz                27     -3.598283  2 H  s          
    13     -3.089831  1 C  pz                54      2.676219  5 H  s          
    46      2.500122  4 H  s                 37     -2.096549  3 H  s          
    28     -1.574915  2 H  s                 21      1.555947  1 C  dxy        

 Vector   23  Occ=0.000000D+00  E= 4.081089D-01  Symmetry=t1
              MO Center=  1.6D-02,  1.2D-01,  7.9D-02, r^2= 5.2D+00
   Bfn.  Coefficient  Atom+Function         Bfn.  Coefficient  Atom+Function  
  ----- ------------  ---------------      ----- ------------  ---------------
    33      0.958330  2 H  py                60     -0.958330  5 H  py         
    52     -0.902028  4 H  pz                61      0.902028  5 H  pz         
    34      0.689841  2 H  pz                43     -0.689841  3 H  pz         
    42      0.633540  3 H  py                51     -0.633540  4 H  py         
    32     -0.268489  2 H  px                50      0.268489  4 H  px         

 Vector   24  Occ=0.000000D+00  E= 4.081089D-01  Symmetry=t1
              MO Center= -8.4D-02,  8.8D-03, -6.4D-02, r^2= 5.2D+00
   Bfn.  Coefficient  Atom+Function         Bfn.  Coefficient  Atom+Function  
  ----- ------------  ---------------      ----- ------------  ---------------
    41      0.918406  3 H  px                59     -0.918406  5 H  px         
    34      0.892099  2 H  pz                43     -0.892099  3 H  pz         
    52      0.722291  4 H  pz                61     -0.722291  5 H  pz         
    32      0.695984  2 H  px                50     -0.695984  4 H  px         
    33      0.196115  2 H  py                60     -0.196115  5 H  py         

 Vector   25  Occ=0.000000D+00  E= 4.081089D-01  Symmetry=t1
              MO Center=  6.8D-02, -1.3D-01, -1.5D-02, r^2= 5.2D+00
   Bfn.  Coefficient  Atom+Function         Bfn.  Coefficient  Atom+Function  
  ----- ------------  ---------------      ----- ------------  ---------------
    42      0.969647  3 H  py                51     -0.969647  4 H  py         
    32      0.886454  2 H  px                50     -0.886454  4 H  px         
    41     -0.704018  3 H  px                59      0.704018  5 H  px         
    33     -0.620825  2 H  py                60      0.620825  5 H  py         
    34      0.265629  2 H  pz                43     -0.265629  3 H  pz         

 Vector   26  Occ=0.000000D+00  E= 4.228831D-01  Symmetry=a1
              MO Center= -3.0D-14, -1.7D-14,  4.4D-14, r^2= 7.7D+00
   Bfn.  Coefficient  Atom+Function         Bfn.  Coefficient  Atom+Function  
  ----- ------------  ---------------      ----- ------------  ---------------
     3     31.165213  1 C  s                 27    -11.414195  2 H  s          
    36    -11.414195  3 H  s                 45    -11.414195  4 H  s          
    54    -11.414195  5 H  s                  4      9.558481  1 C  s          
    20      3.456019  1 C  dxx               23      3.456019  1 C  dyy        
    25      3.456019  1 C  dzz               32      2.150033  2 H  px         

 Vector   27  Occ=0.000000D+00  E= 4.744157D-01  Symmetry=t2
              MO Center= -4.1D-02, -1.4D-01, -1.8D-01, r^2= 5.1D+00
   Bfn.  Coefficient  Atom+Function         Bfn.  Coefficient  Atom+Function  
  ----- ------------  ---------------      ----- ------------  ---------------
     8      2.890461  1 C  px                24      2.716350  1 C  dyz        
    36      2.081907  3 H  s                 37      1.576188  3 H  s          
    27     -1.452711  2 H  s                 34     -1.370148  2 H  pz         
    43      1.318708  3 H  pz                51     -1.317486  4 H  py         
    45     -1.297588  4 H  s                 42      1.253365  3 H  py         

 Vector   28  Occ=0.000000D+00  E= 4.744157D-01  Symmetry=t2
              MO Center=  5.3D-02, -1.4D-02,  1.8D-01, r^2= 5.1D+00
   Bfn.  Coefficient  Atom+Function         Bfn.  Coefficient  Atom+Function  
  ----- ------------  ---------------      ----- ------------  ---------------
     9      2.964600  1 C  py                22      2.786024  1 C  dxz        
    45      1.900987  4 H  s                 54     -1.671879  5 H  s          
    46      1.439216  4 H  s                 61      1.368342  5 H  pz         
    52     -1.349611  4 H  pz                55     -1.265761  5 H  s          
    32      1.190821  2 H  px                27     -1.148964  2 H  s          

 Vector   29  Occ=0.000000D+00  E= 4.744157D-01  Symmetry=t2
              MO Center= -1.3D-02,  1.6D-01,  3.0D-03, r^2= 5.1D+00
   Bfn.  Coefficient  Atom+Function         Bfn.  Coefficient  Atom+Function  
  ----- ------------  ---------------      ----- ------------  ---------------
    10      2.996037  1 C  pz                21      2.815567  1 C  dxy        
    54     -1.785907  5 H  s                 27      1.732311  2 H  s          
    55     -1.352090  5 H  s                 33     -1.340381  2 H  py         
    60      1.335999  5 H  py                28      1.311513  2 H  s          
    13      1.141668  1 C  pz                41      1.131984  3 H  px         

 Vector   30  Occ=0.000000D+00  E= 5.651134D-01  Symmetry=t2
              MO Center=  3.6D-02, -1.0D-02,  2.5D-01, r^2= 6.2D+00
   Bfn.  Coefficient  Atom+Function         Bfn.  Coefficient  Atom+Function  
  ----- ------------  ---------------      ----- ------------  ---------------
    45     13.801382  4 H  s                 54    -12.958784  5 H  s          
    27     -7.879693  2 H  s                 36      7.037095  3 H  s          
     9      6.846859  1 C  py                51      4.156771  4 H  py         
    60      4.005947  5 H  py                22     -3.756494  1 C  dxz        
    33      3.096795  2 H  py                42      2.945970  3 H  py         


------------------------------------------------------------
EAF file 0: "./H4C1.aoints.0" size=1048576 bytes
------------------------------------------------------------
               write      read    awrite     aread      wait
               -----      ----    ------     -----      ----
     calls:        2         6         0         6         6
   data(b): 1.05e+06  3.15e+06  0.00e+00  3.15e+06
   time(s): 4.52e-04  6.74e-04  0.00e+00  1.01e-03  0.00e+00
rate(mb/s): 2.32e+03  4.67e+03  0.00e+00* 3.10e+03*
------------------------------------------------------------
* = Effective rate.  Full wait time used for read and write.


 center of mass
 --------------
 x =   0.00000000 y =   0.00000000 z =   0.00000000

 moments of inertia (a.u.)
 ------------------
          11.381708111619           0.000000000000           0.000000000000
           0.000000000000          11.381708111619           0.000000000000
           0.000000000000           0.000000000000          11.381708111619

     Multipole analysis of the density
     ---------------------------------

     L   x y z        total         alpha         beta         nuclear
     -   - - -        -----         -----         ----         -------
     0   0 0 0     -0.000000     -5.000000     -5.000000     10.000000

     1   1 0 0      0.000000      0.000000      0.000000      0.000000
     1   0 1 0      0.000000      0.000000      0.000000      0.000000
     1   0 0 1      0.000000     -0.000000     -0.000000      0.000000

     2   2 0 0     -6.334499     -5.990584     -5.990584      5.646669
     2   1 1 0      0.000000      0.000000      0.000000      0.000000
     2   1 0 1      0.000000      0.000000      0.000000      0.000000
     2   0 2 0     -6.334499     -5.990584     -5.990584      5.646669
     2   0 1 1     -0.000000     -0.000000     -0.000000      0.000000
     2   0 0 2     -6.334499     -5.990584     -5.990584      5.646669


 Parallel integral file used       7 records with       0 large values



                            NWChem DFT Gradient Module
                            --------------------------


                                 H4C1 dft optimize



  charge          =   0.00
  wavefunction    = closed shell

  Using symmetry


                         DFT ENERGY GRADIENTS

    atom               coordinates                        gradient
                 x          y          z           x          y          z
   1 C       0.000000   0.000000   0.000000    0.000000   0.000000   0.000000
   2 H       1.188136   1.188136  -1.188136   -0.003034  -0.003034   0.003034
   3 H      -1.188136  -1.188136  -1.188136    0.003034   0.003034   0.003034
   4 H       1.188136  -1.188136   1.188136   -0.003034   0.003034  -0.003034
   5 H      -1.188136   1.188136   1.188136    0.003034  -0.003034  -0.003034

                 ----------------------------------------
                 |  Time  |  1-e(secs)   |  2-e(secs)   |
                 ----------------------------------------
                 |  CPU   |       0.00   |       0.32   |
                 ----------------------------------------
                 |  WALL  |       0.00   |       0.32   |
                 ----------------------------------------

@ Step       Energy      Delta E   Gmax     Grms     Xrms     Xmax   Walltime
@ ---- ---------------- -------- -------- -------- -------- -------- --------
@    0     -40.52106209  0.0D+00  0.00525  0.00332  0.00000  0.00000      1.2
                                                                    



                                Z-matrix (autoz)
                                -------- 

 Units are Angstrom for bonds and degrees for angles

      Type          Name      I     J     K     L     M      Value     Gradient
      ----------- --------  ----- ----- ----- ----- ----- ---------- ----------
    1 Stretch                  1     2                       1.08900   -0.00525
    2 Stretch                  1     3                       1.08900   -0.00525
    3 Stretch                  1     4                       1.08900   -0.00525
    4 Stretch                  1     5                       1.08900   -0.00525
    5 Bend                     2     1     3               109.47122   -0.00000
    6 Bend                     2     1     4               109.47122   -0.00000
    7 Bend                     2     1     5               109.47122    0.00000
    8 Bend                     3     1     4               109.47122    0.00000
    9 Bend                     3     1     5               109.47122    0.00000
   10 Bend                     4     1     5               109.47122   -0.00000


                                 NWChem DFT Module
                                 -----------------


                                 H4C1 dft optimize


  Caching 1-el integrals 

            General Information
            -------------------
          SCF calculation type: DFT
          Wavefunction type:  closed shell.
          No. of atoms     :     5
          No. of electrons :    10
           Alpha electrons :     5
            Beta electrons :     5
          Charge           :     0
          Spin multiplicity:     1
          Use of symmetry is: on ; symmetry adaption is: on 
          Maximum number of iterations:  30
          AO basis - number of functions:    61
                     number of shells:    29
          Convergence on energy requested: 1.00D-06
          Convergence on density requested: 1.00D-05
          Convergence on gradient requested: 5.00D-04

              XC Information
              --------------
                         B3LYP Method XC Potential
                     Hartree-Fock (Exact) Exchange  0.200          
                        Slater Exchange Functional  0.800 local    
                    Becke 1988 Exchange Functional  0.720 non-local
              Lee-Yang-Parr Correlation Functional  0.810          
                  VWN I RPA Correlation Functional  0.190 local    

             Grid Information
             ----------------
          Grid used for XC integration:  medium    
          Radial quadrature: Mura-Knowles        
          Angular quadrature: Lebedev. 
          Tag              B.-S. Rad. Rad. Pts. Rad. Cut. Ang. Pts.
          ---              ---------- --------- --------- ---------
          C                   0.70       49          11.0       434
          H                   0.35       45          12.0       434
          Grid pruning is: on 
          Number of quadrature shells:    94
          Spatial weights used:  Erf1

          Convergence Information
          -----------------------
          Convergence aids based upon iterative change in 
          total energy or number of iterations. 
          Levelshifting, if invoked, occurs when the 
          HOMO/LUMO gap drops below (HL_TOL): 1.00D-02
          DIIS, if invoked, will attempt to extrapolate 
          using up to (NFOCK): 10 stored Fock matrices.

                    Damping( 0%)  Levelshifting(0.5)       DIIS
                  --------------- ------------------- ---------------
          dE  on:    start            ASAP                start   
          dE off:    2 iters         30 iters            30 iters 


      Screening Tolerance Information
      -------------------------------
          Density screening/tol_rho: 1.00D-10
          AO Gaussian exp screening on grid/accAOfunc:  14
          CD Gaussian exp screening on grid/accCDfunc:  20
          XC Gaussian exp screening on grid/accXCfunc:  20
          Schwarz screening/accCoul: 1.00D-08


 Loading old vectors from job with title :

H4C1 dft optimize


      Symmetry analysis of molecular orbitals - initial
      -------------------------------------------------

  Numbering of irreducible representations: 

     1 a1          2 a2          3 e           4 t1          5 t2      

  Orbital symmetries:

     1 a1          2 a1          3 t2          4 t2          5 t2      
     6 a1          7 t2          8 t2          9 t2         10 t2      
    11 t2         12 t2         13 a1         14 t2         15 t2      

   Time after variat. SCF:      1.2
   Time prior to 1st pass:      1.2

 Integral file          = ./H4C1.aoints.0
 Record size in doubles =  65536        No. of integs per rec  =  43688
 Max. records in memory =      5        Max. records in file   = 189277
 No. of bits per label  =      8        No. of bits per value  =     64


 #quartets = 1.419D+04 #integrals = 2.967D+05 #direct =  0.0% #cached =100.0%


 Grid_pts file          = ./H4C1.gridpts.0
 Record size in doubles =  12289        No. of grid_pts per rec  =   3070
 Max. records in memory =     16        Max. recs in file   =   1009390


           Memory utilization after 1st SCF pass: 
           Heap Space remaining (MW):       12.58            12580653
          Stack Space remaining (MW):       13.11            13106829

   convergence    iter        energy       DeltaE   RMS-Dens  Diis-err    time
 ---------------- ----- ----------------- --------- --------- ---------  ------
 d= 0,ls=0.0,diis     1    -40.5211886423 -5.39D+01  1.21D-03  1.93D-04     1.4
 d= 0,ls=0.0,diis     2    -40.5212134072 -2.48D-05  9.09D-05  1.55D-05     1.4
 d= 0,ls=0.0,diis     3    -40.5212135426 -1.35D-07  4.06D-05  1.41D-05     1.5
 d= 0,ls=0.0,diis     4    -40.5212153424 -1.80D-06  1.06D-06  2.61D-09     1.5
 d= 0,ls=0.0,diis     5    -40.5212153429 -4.19D-10  8.97D-08  3.10D-11     1.6
  Resetting Diis
 d= 0,ls=0.0,diis     6    -40.5212153429 -2.34D-12  1.08D-08  9.92D-14     1.7
 d= 0,ls=0.0,diis     7    -40.5212153429 -8.99D-12  9.57D-10  1.23D-16     1.7


         Total DFT energy =      -40.521215342877
      One electron energy =      -79.630677791477
           Coulomb energy =       32.647574228497
    Exchange-Corr. energy =       -6.888300876000
 Nuclear repulsion energy =       13.350189096103

 Numeric. integr. density =       10.000004675538

     Total iterative time =      0.6s



                  Occupations of the irreducible representations
                  ----------------------------------------------

                     irrep           alpha         beta
                     --------     --------     --------
                     a1                2.0          2.0
                     a2                0.0          0.0
                     e                 0.0          0.0
                     t1                0.0          0.0
                     t2                3.0          3.0


                       DFT Final Molecular Orbital Analysis
                       ------------------------------------

 Vector    1  Occ=2.000000D+00  E=-1.017446D+01  Symmetry=a1
              MO Center= -1.1D-19,  1.4D-20, -1.5D-20, r^2= 2.8D-02
   Bfn.  Coefficient  Atom+Function         Bfn.  Coefficient  Atom+Function  
  ----- ------------  ---------------      ----- ------------  ---------------
     1      1.004180  1 C  s          

 Vector    2  Occ=2.000000D+00  E=-6.956126D-01  Symmetry=a1
              MO Center= -1.7D-17, -3.0D-17,  4.2D-17, r^2= 1.0D+00
   Bfn.  Coefficient  Atom+Function         Bfn.  Coefficient  Atom+Function  
  ----- ------------  ---------------      ----- ------------  ---------------
     2      0.376546  1 C  s                 26      0.187824  2 H  s          
    35      0.187824  3 H  s                 44      0.187824  4 H  s          
    53      0.187824  5 H  s                  3      0.154799  1 C  s          

 Vector    3  Occ=2.000000D+00  E=-3.933861D-01  Symmetry=t2
              MO Center=  8.8D-03, -1.2D-02,  2.8D-01, r^2= 1.3D+00
   Bfn.  Coefficient  Atom+Function         Bfn.  Coefficient  Atom+Function  
  ----- ------------  ---------------      ----- ------------  ---------------
    45      0.404809  4 H  s                 54     -0.390656  5 H  s          
     5      0.358853  1 C  px                44      0.333762  4 H  s          
    53     -0.322093  5 H  s                  6     -0.266545  1 C  py         

 Vector    4  Occ=2.000000D+00  E=-3.933861D-01  Symmetry=t2
              MO Center=  2.3D-01,  1.8D-01, -1.8D-01, r^2= 1.2D+00
   Bfn.  Coefficient  Atom+Function         Bfn.  Coefficient  Atom+Function  
  ----- ------------  ---------------      ----- ------------  ---------------
    27      0.489400  2 H  s                 26      0.403506  2 H  s          
     6      0.278347  1 C  py                 7     -0.275887  1 C  pz         
     5      0.215302  1 C  px                45     -0.215549  4 H  s          
    44     -0.177719  4 H  s          

 Vector    5  Occ=2.000000D+00  E=-3.933861D-01  Symmetry=t2
              MO Center= -2.4D-01, -1.6D-01, -1.1D-01, r^2= 1.3D+00
   Bfn.  Coefficient  Atom+Function         Bfn.  Coefficient  Atom+Function  
  ----- ------------  ---------------      ----- ------------  ---------------
    36      0.468081  3 H  s                 35      0.385929  3 H  s          
     7     -0.351721  1 C  pz                54     -0.267716  5 H  s          
     6     -0.226765  1 C  py                53     -0.220730  5 H  s          
    45     -0.179651  4 H  s                  5     -0.157528  1 C  px         

 Vector    6  Occ=0.000000D+00  E=-7.147814D-03  Symmetry=a1
              MO Center=  6.1D-14,  1.6D-14,  3.7D-14, r^2= 1.2D+01
   Bfn.  Coefficient  Atom+Function         Bfn.  Coefficient  Atom+Function  
  ----- ------------  ---------------      ----- ------------  ---------------
     4      2.168781  1 C  s                  3      2.081673  1 C  s          
    27     -0.860738  2 H  s                 36     -0.860738  3 H  s          
    45     -0.860738  4 H  s                 54     -0.860738  5 H  s          
    28     -0.621713  2 H  s                 37     -0.621713  3 H  s          
    46     -0.621713  4 H  s                 55     -0.621713  5 H  s          

 Vector    7  Occ=0.000000D+00  E= 3.148703D-02  Symmetry=t2
              MO Center= -2.8D-01, -8.4D-01, -6.2D-01, r^2= 1.5D+01
   Bfn.  Coefficient  Atom+Function         Bfn.  Coefficient  Atom+Function  
  ----- ------------  ---------------      ----- ------------  ---------------
    37      3.570699  3 H  s                 46     -2.242515  4 H  s          
    28     -1.777838  2 H  s                 11      0.852402  1 C  px         
    55      0.449654  5 H  s                 13      0.380125  1 C  pz         
    12      0.281604  1 C  py         

 Vector    8  Occ=0.000000D+00  E= 3.148703D-02  Symmetry=t2
              MO Center= -6.7D-01,  9.5D-01,  3.9D-01, r^2= 1.5D+01
   Bfn.  Coefficient  Atom+Function         Bfn.  Coefficient  Atom+Function  
  ----- ------------  ---------------      ----- ------------  ---------------
    55      3.729504  5 H  s                 28     -2.196509  2 H  s          
    37     -1.551601  3 H  s                 13     -0.794681  1 C  pz         
    11      0.461763  1 C  px                12     -0.325028  1 C  py         

 Vector    9  Occ=0.000000D+00  E= 3.148703D-02  Symmetry=t2
              MO Center=  9.4D-01, -1.1D-01,  2.3D-01, r^2= 1.5D+01
   Bfn.  Coefficient  Atom+Function         Bfn.  Coefficient  Atom+Function  
  ----- ------------  ---------------      ----- ------------  ---------------
    46      3.290445  4 H  s                 28     -2.805510  2 H  s          
    55     -1.320932  5 H  s                 12      0.874895  1 C  py         
    37      0.835997  3 H  s                 13     -0.417580  1 C  pz         
     9      0.151007  1 C  py         

 Vector   10  Occ=0.000000D+00  E= 9.341091D-02  Symmetry=t2
              MO Center= -1.5D-01, -3.1D-03,  6.2D-04, r^2= 1.2D+01
   Bfn.  Coefficient  Atom+Function         Bfn.  Coefficient  Atom+Function  
  ----- ------------  ---------------      ----- ------------  ---------------
    28      3.635097  2 H  s                 46     -3.610896  4 H  s          
    13      3.465204  1 C  pz                55     -2.441162  5 H  s          
    37      2.416961  3 H  s                 27      1.928465  2 H  s          
    45     -1.915626  4 H  s                 54     -1.295068  5 H  s          
    36      1.282228  3 H  s                 10      1.158351  1 C  pz         

 Vector   11  Occ=0.000000D+00  E= 9.341091D-02  Symmetry=t2
              MO Center=  1.4D-01,  5.1D-02,  2.6D-01, r^2= 1.2D+01
   Bfn.  Coefficient  Atom+Function         Bfn.  Coefficient  Atom+Function  
  ----- ------------  ---------------      ----- ------------  ---------------
    37      4.465263  3 H  s                 28     -3.335797  2 H  s          
    12      3.253501  1 C  py                36      2.368879  3 H  s          
    55     -2.346517  5 H  s                 27     -1.769683  2 H  s          
    54     -1.244857  5 H  s                 11      1.213122  1 C  px         
    46      1.217051  4 H  s                  9      1.087583  1 C  py         

 Vector   12  Occ=0.000000D+00  E= 9.341091D-02  Symmetry=t2
              MO Center=  1.7D-02, -4.8D-02, -2.6D-01, r^2= 1.2D+01
   Bfn.  Coefficient  Atom+Function         Bfn.  Coefficient  Atom+Function  
  ----- ------------  ---------------      ----- ------------  ---------------
    55      4.132153  5 H  s                 46     -3.744372  4 H  s          
    11      3.317121  1 C  px                54      2.192160  5 H  s          
    28     -2.049055  2 H  s                 45     -1.986437  4 H  s          
    37      1.661274  3 H  s                 12     -1.192711  1 C  py         
     8      1.108850  1 C  px                27     -1.087050  2 H  s          

 Vector   13  Occ=0.000000D+00  E= 1.038161D-01  Symmetry=a1
              MO Center=  4.0D-14,  8.0D-14, -9.2D-13, r^2= 1.6D+01
   Bfn.  Coefficient  Atom+Function         Bfn.  Coefficient  Atom+Function  
  ----- ------------  ---------------      ----- ------------  ---------------
     3      9.540354  1 C  s                  4      9.443822  1 C  s          
    27     -4.384483  2 H  s                 36     -4.384483  3 H  s          
    45     -4.384483  4 H  s                 54     -4.384483  5 H  s          
    28     -1.402269  2 H  s                 37     -1.402269  3 H  s          
    46     -1.402269  4 H  s                 55     -1.402269  5 H  s          

 Vector   14  Occ=0.000000D+00  E= 1.723447D-01  Symmetry=t2
              MO Center= -1.8D-01,  6.9D-01,  8.1D-02, r^2= 7.4D+00
   Bfn.  Coefficient  Atom+Function         Bfn.  Coefficient  Atom+Function  
  ----- ------------  ---------------      ----- ------------  ---------------
    55      3.146940  5 H  s                 28     -2.673481  2 H  s          
    13     -1.564028  1 C  pz                37     -1.327934  3 H  s          
    46      0.854476  4 H  s                 11      0.710992  1 C  px         
    54     -0.699316  5 H  s                 27      0.594103  2 H  s          
     7      0.336161  1 C  pz                36      0.295095  3 H  s          

 Vector   15  Occ=0.000000D+00  E= 1.723447D-01  Symmetry=t2
              MO Center= -1.6D-01, -6.3D-01, -3.8D-01, r^2= 7.3D+00
   Bfn.  Coefficient  Atom+Function         Bfn.  Coefficient  Atom+Function  
  ----- ------------  ---------------      ----- ------------  ---------------
    37      3.332811  3 H  s                 46     -2.303423  4 H  s          
    28     -1.655102  2 H  s                 11      1.547264  1 C  px         
    36     -0.740620  3 H  s                 13      0.655764  1 C  pz         
    55      0.625715  5 H  s                 45      0.511869  4 H  s          
    12      0.402355  1 C  py                27      0.367798  2 H  s          

 Vector   16  Occ=0.000000D+00  E= 1.723447D-01  Symmetry=t2
              MO Center=  3.4D-01, -6.0D-02,  3.0D-01, r^2= 7.7D+00
   Bfn.  Coefficient  Atom+Function         Bfn.  Coefficient  Atom+Function  
  ----- ------------  ---------------      ----- ------------  ---------------
    46      2.936378  4 H  s                 28     -2.184339  2 H  s          
    55     -2.088888  5 H  s                 12      1.670271  1 C  py         
    37      1.336849  3 H  s                 45     -0.652524  4 H  s          
    27      0.485406  2 H  s                 54      0.464195  5 H  s          
     6     -0.358996  1 C  py                13     -0.331257  1 C  pz         

 Vector   17  Occ=0.000000D+00  E= 2.011136D-01  Symmetry=e
              MO Center= -6.0D-16,  1.2D-14,  3.1D-16, r^2= 5.0D+00
   Bfn.  Coefficient  Atom+Function         Bfn.  Coefficient  Atom+Function  
  ----- ------------  ---------------      ----- ------------  ---------------
    23      0.985018  1 C  dyy               33     -0.792181  2 H  py         
    42      0.792181  3 H  py                51      0.792181  4 H  py         
    60     -0.792181  5 H  py                20     -0.711742  1 C  dxx        
    32      0.572405  2 H  px                41     -0.572405  3 H  px         
    50      0.572405  4 H  px                59     -0.572405  5 H  px         

 Vector   18  Occ=0.000000D+00  E= 2.011136D-01  Symmetry=e
              MO Center=  2.0D-15,  2.4D-15, -3.9D-16, r^2= 5.0D+00
   Bfn.  Coefficient  Atom+Function         Bfn.  Coefficient  Atom+Function  
  ----- ------------  ---------------      ----- ------------  ---------------
    25      0.979625  1 C  dzz               34      0.787844  2 H  pz         
    43      0.787844  3 H  pz                52     -0.787844  4 H  pz         
    61     -0.787844  5 H  pz                20     -0.726476  1 C  dxx        
    32      0.584254  2 H  px                41     -0.584254  3 H  px         
    50      0.584254  4 H  px                59     -0.584254  5 H  px         

 Vector   19  Occ=0.000000D+00  E= 2.885078D-01  Symmetry=a1
              MO Center= -4.9D-13, -1.3D-13, -1.8D-14, r^2= 8.6D+00
   Bfn.  Coefficient  Atom+Function         Bfn.  Coefficient  Atom+Function  
  ----- ------------  ---------------      ----- ------------  ---------------
     3     16.384945  1 C  s                  4     11.089180  1 C  s          
    27     -7.999661  2 H  s                 36     -7.999661  3 H  s          
    45     -7.999661  4 H  s                 54     -7.999661  5 H  s          
    20      2.427953  1 C  dxx               23      2.427953  1 C  dyy        
    25      2.427953  1 C  dzz               28     -1.039180  2 H  s          

 Vector   20  Occ=0.000000D+00  E= 3.369545D-01  Symmetry=t2
              MO Center=  6.7D-03, -2.3D-02, -3.1D-01, r^2= 7.6D+00
   Bfn.  Coefficient  Atom+Function         Bfn.  Coefficient  Atom+Function  
  ----- ------------  ---------------      ----- ------------  ---------------
    54     -5.383297  5 H  s                 45      5.205044  4 H  s          
     8     -3.988649  1 C  px                11     -3.067702  1 C  px         
    27      3.022494  2 H  s                 36     -2.844240  3 H  s          
    55     -2.359559  5 H  s                 46      2.281429  4 H  s          
    24      1.554992  1 C  dyz               28      1.324793  2 H  s          

 Vector   21  Occ=0.000000D+00  E= 3.369545D-01  Symmetry=t2
              MO Center= -2.5D-01, -4.7D-02,  1.0D-02, r^2= 7.6D+00
   Bfn.  Coefficient  Atom+Function         Bfn.  Coefficient  Atom+Function  
  ----- ------------  ---------------      ----- ------------  ---------------
    27      5.277291  2 H  s                 45     -4.926602  4 H  s          
    10      4.048583  1 C  pz                54     -3.424563  5 H  s          
    13      3.113798  1 C  pz                36      3.073874  3 H  s          
    28      2.313095  2 H  s                 46     -2.159385  4 H  s          
    21     -1.578358  1 C  dxy               55     -1.501024  5 H  s          

 Vector   22  Occ=0.000000D+00  E= 3.369545D-01  Symmetry=t2
              MO Center=  2.4D-01,  7.0D-02,  3.0D-01, r^2= 7.5D+00
   Bfn.  Coefficient  Atom+Function         Bfn.  Coefficient  Atom+Function  
  ----- ------------  ---------------      ----- ------------  ---------------
    36      6.118395  3 H  s                 27     -4.241213  2 H  s          
     9      3.887164  1 C  py                54     -3.776988  5 H  s          
    12      2.989649  1 C  py                37      2.681761  3 H  s          
    45      1.899807  4 H  s                 28     -1.858971  2 H  s          
    55     -1.655496  5 H  s                 22     -1.515428  1 C  dxz        

 Vector   23  Occ=0.000000D+00  E= 4.066609D-01  Symmetry=t1
              MO Center=  5.5D-02, -1.9D-01, -1.8D-02, r^2= 5.2D+00
   Bfn.  Coefficient  Atom+Function         Bfn.  Coefficient  Atom+Function  
  ----- ------------  ---------------      ----- ------------  ---------------
    42      1.020872  3 H  py                51     -1.020872  4 H  py         
    32      0.839383  2 H  px                50     -0.839383  4 H  px         
    41     -0.691552  3 H  px                59      0.691552  5 H  px         
    33     -0.510063  2 H  py                60      0.510063  5 H  py         
    34      0.329320  2 H  pz                43     -0.329320  3 H  pz         

 Vector   24  Occ=0.000000D+00  E= 4.066609D-01  Symmetry=t1
              MO Center= -1.2D-01,  5.5D-02, -2.2D-01, r^2= 5.2D+00
   Bfn.  Coefficient  Atom+Function         Bfn.  Coefficient  Atom+Function  
  ----- ------------  ---------------      ----- ------------  ---------------
    34      1.043365  2 H  pz                43     -1.043365  3 H  pz         
    41      0.899757  3 H  px                59     -0.899757  5 H  px         
    32      0.546375  2 H  px                50     -0.546375  4 H  px         
    33      0.496990  2 H  py                60     -0.496990  5 H  py         
    52      0.402767  4 H  pz                61     -0.402767  5 H  pz         

 Vector   25  Occ=0.000000D+00  E= 4.066609D-01  Symmetry=t1
              MO Center=  6.9D-02,  1.3D-01,  2.4D-01, r^2= 5.1D+00
   Bfn.  Coefficient  Atom+Function         Bfn.  Coefficient  Atom+Function  
  ----- ------------  ---------------      ----- ------------  ---------------
    52      1.057408  4 H  pz                61     -1.057408  5 H  pz         
    33     -0.897835  2 H  py                60      0.897835  5 H  py         
    32      0.556940  2 H  px                50     -0.556940  4 H  px         
    42     -0.500468  3 H  py                51      0.500468  4 H  py         
    34     -0.340895  2 H  pz                43      0.340895  3 H  pz         

 Vector   26  Occ=0.000000D+00  E= 4.222376D-01  Symmetry=a1
              MO Center= -7.4D-13, -4.7D-13,  1.5D-12, r^2= 7.7D+00
   Bfn.  Coefficient  Atom+Function         Bfn.  Coefficient  Atom+Function  
  ----- ------------  ---------------      ----- ------------  ---------------
     3     30.803342  1 C  s                 27    -11.327117  2 H  s          
    36    -11.327117  3 H  s                 45    -11.327117  4 H  s          
    54    -11.327117  5 H  s                  4      9.559575  1 C  s          
    20      3.440152  1 C  dxx               23      3.440152  1 C  dyy        
    25      3.440152  1 C  dzz               32      2.146662  2 H  px         

 Vector   27  Occ=0.000000D+00  E= 4.729321D-01  Symmetry=t2
              MO Center= -1.7D-02,  9.8D-02,  1.2D-01, r^2= 5.2D+00
   Bfn.  Coefficient  Atom+Function         Bfn.  Coefficient  Atom+Function  
  ----- ------------  ---------------      ----- ------------  ---------------
     8      2.968822  1 C  px                24      2.770227  1 C  dyz        
    54      1.852891  5 H  s                 45     -1.454192  4 H  s          
    55      1.420907  5 H  s                 27     -1.363757  2 H  s          
    52      1.278279  4 H  pz                33      1.247312  2 H  py         
    61     -1.246895  5 H  pz                60     -1.208809  5 H  py         

 Vector   28  Occ=0.000000D+00  E= 4.729321D-01  Symmetry=t2
              MO Center= -1.7D-01, -1.2D-01, -3.1D-02, r^2= 5.2D+00
   Bfn.  Coefficient  Atom+Function         Bfn.  Coefficient  Atom+Function  
  ----- ------------  ---------------      ----- ------------  ---------------
    10      2.903996  1 C  pz                21      2.709737  1 C  dxy        
    36      1.980066  3 H  s                 37      1.518433  3 H  s          
    54     -1.469720  5 H  s                 59     -1.337155  5 H  px         
    41      1.296982  3 H  px                45     -1.286698  4 H  s          
    51     -1.274484  4 H  py                42      1.219904  3 H  py         

 Vector   29  Occ=0.000000D+00  E= 4.729321D-01  Symmetry=t2
              MO Center=  1.8D-01,  2.5D-02, -8.9D-02, r^2= 5.2D+00
   Bfn.  Coefficient  Atom+Function         Bfn.  Coefficient  Atom+Function  
  ----- ------------  ---------------      ----- ------------  ---------------
     9      2.908045  1 C  py                22      2.713515  1 C  dxz        
    27     -1.947237  2 H  s                 45      1.576078  4 H  s          
    28     -1.493257  2 H  s                 50     -1.359749  4 H  px         
    32      1.330532  2 H  px                43      1.225554  3 H  pz         
    46      1.208631  4 H  s                 36      1.184183  3 H  s          

 Vector   30  Occ=0.000000D+00  E= 5.645936D-01  Symmetry=t2
              MO Center= -2.7D-01,  1.8D-01,  3.9D-01, r^2= 6.0D+00
   Bfn.  Coefficient  Atom+Function         Bfn.  Coefficient  Atom+Function  
  ----- ------------  ---------------      ----- ------------  ---------------
    54     17.634350  5 H  s                 45     -9.881286  4 H  s          
    36     -6.674115  3 H  s                  9     -5.520970  1 C  py         
    60     -4.520412  5 H  py                59      4.066991  5 H  px         
    61     -3.807088  5 H  pz                 8      3.655068  1 C  px         
    51     -3.122833  4 H  py                22      3.053656  1 C  dxz        


------------------------------------------------------------
EAF file 0: "./H4C1.aoints.0" size=1048576 bytes
------------------------------------------------------------
               write      read    awrite     aread      wait
               -----      ----    ------     -----      ----
     calls:        2         6         0         6         6
   data(b): 1.05e+06  3.15e+06  0.00e+00  3.15e+06
   time(s): 4.62e-04  6.78e-04  0.00e+00  1.73e-03  0.00e+00
rate(mb/s): 2.27e+03  4.64e+03  0.00e+00* 1.82e+03*
------------------------------------------------------------
* = Effective rate.  Full wait time used for read and write.


 center of mass
 --------------
 x =   0.00000000 y =   0.00000000 z =   0.00000000

 moments of inertia (a.u.)
 ------------------
          11.548624534690           0.000000000000           0.000000000000
           0.000000000000          11.548624534690           0.000000000000
           0.000000000000           0.000000000000          11.548624534690

     Multipole analysis of the density
     ---------------------------------

     L   x y z        total         alpha         beta         nuclear
     -   - - -        -----         -----         ----         -------
     0   0 0 0     -0.000000     -5.000000     -5.000000     10.000000

     1   1 0 0      0.000000      0.000000      0.000000      0.000000
     1   0 1 0      0.000000      0.000000      0.000000      0.000000
     1   0 0 1     -0.000000     -0.000000     -0.000000      0.000000

     2   2 0 0     -6.351871     -6.040675     -6.040675      5.729479
     2   1 1 0      0.000000      0.000000      0.000000      0.000000
     2   1 0 1     -0.000000     -0.000000     -0.000000      0.000000
     2   0 2 0     -6.351871     -6.040675     -6.040675      5.729479
     2   0 1 1     -0.000000     -0.000000     -0.000000      0.000000
     2   0 0 2     -6.351871     -6.040675     -6.040675      5.729479


 Parallel integral file used       7 records with       0 large values

 Line search: 
     step= 1.00 grad=-3.2D-04 hess= 1.6D-04 energy=    -40.521215 mode=accept  
 new step= 1.00                   predicted energy=    -40.521215

          --------
          Step   1
          --------


                         Geometry "geometry" -> "geometry"
                         ---------------------------------

 Output coordinates in angstroms (scale by  1.889725989 to convert to a.u.)

  No.       Tag          Charge          X              Y              Z
 ---- ---------------- ---------- -------------- -------------- --------------
    1 C                    6.0000     0.00000000     0.00000000     0.00000000
    2 H                    1.0000     0.63332807     0.63332807    -0.63332807
    3 H                    1.0000    -0.63332807    -0.63332807    -0.63332807
    4 H                    1.0000     0.63332807    -0.63332807     0.63332807
    5 H                    1.0000    -0.63332807     0.63332807     0.63332807

      Atomic Mass 
      ----------- 

      C                 12.000000
      H                  1.007825


 Effective nuclear repulsion energy (a.u.)      13.3501890961

            Nuclear Dipole moment (a.u.) 
            ----------------------------
        X                 Y               Z
 ---------------- ---------------- ----------------
     0.0000000000     0.0000000000     0.0000000000

      Symmetry information
      --------------------

 Group name              Td       
 Group number             42
 Group order              24
 No. of unique centers     2

      Symmetry unique atoms

     1    2


                                 NWChem DFT Module
                                 -----------------


                                 H4C1 dft optimize



  The DFT is already converged 

         Total DFT energy =    -40.521215342877



                            NWChem DFT Gradient Module
                            --------------------------


                                 H4C1 dft optimize



  charge          =   0.00
  wavefunction    = closed shell

  Using symmetry


                         DFT ENERGY GRADIENTS

    atom               coordinates                        gradient
                 x          y          z           x          y          z
   1 C       0.000000   0.000000   0.000000    0.000000   0.000000   0.000000
   2 H       1.196817   1.196817  -1.196817    0.000068   0.000068  -0.000068
   3 H      -1.196817  -1.196817  -1.196817   -0.000068  -0.000068  -0.000068
   4 H       1.196817  -1.196817   1.196817    0.000068  -0.000068   0.000068
   5 H      -1.196817   1.196817   1.196817   -0.000068   0.000068   0.000068

                 ----------------------------------------
                 |  Time  |  1-e(secs)   |  2-e(secs)   |
                 ----------------------------------------
                 |  CPU   |       0.00   |       0.32   |
                 ----------------------------------------
                 |  WALL  |       0.00   |       0.32   |
                 ----------------------------------------

  Step       Energy      Delta E   Gmax     Grms     Xrms     Xmax   Walltime
  ---- ---------------- -------- -------- -------- -------- -------- --------
@    1     -40.52121534 -1.5D-04  0.00012  0.00007  0.00776  0.00868      2.3
                                     ok       ok                    



                                Z-matrix (autoz)
                                -------- 

 Units are Angstrom for bonds and degrees for angles

      Type          Name      I     J     K     L     M      Value     Gradient
      ----------- --------  ----- ----- ----- ----- ----- ---------- ----------
    1 Stretch                  1     2                       1.09696    0.00012
    2 Stretch                  1     3                       1.09696    0.00012
    3 Stretch                  1     4                       1.09696    0.00012
    4 Stretch                  1     5                       1.09696    0.00012
    5 Bend                     2     1     3               109.47122    0.00000
    6 Bend                     2     1     4               109.47122   -0.00000
    7 Bend                     2     1     5               109.47122   -0.00000
    8 Bend                     3     1     4               109.47122    0.00000
    9 Bend                     3     1     5               109.47122   -0.00000
   10 Bend                     4     1     5               109.47122    0.00000


                                 NWChem DFT Module
                                 -----------------


                                 H4C1 dft optimize


  Caching 1-el integrals 

            General Information
            -------------------
          SCF calculation type: DFT
          Wavefunction type:  closed shell.
          No. of atoms     :     5
          No. of electrons :    10
           Alpha electrons :     5
            Beta electrons :     5
          Charge           :     0
          Spin multiplicity:     1
          Use of symmetry is: on ; symmetry adaption is: on 
          Maximum number of iterations:  30
          AO basis - number of functions:    61
                     number of shells:    29
          Convergence on energy requested: 1.00D-06
          Convergence on density requested: 1.00D-05
          Convergence on gradient requested: 5.00D-04

              XC Information
              --------------
                         B3LYP Method XC Potential
                     Hartree-Fock (Exact) Exchange  0.200          
                        Slater Exchange Functional  0.800 local    
                    Becke 1988 Exchange Functional  0.720 non-local
              Lee-Yang-Parr Correlation Functional  0.810          
                  VWN I RPA Correlation Functional  0.190 local    

             Grid Information
             ----------------
          Grid used for XC integration:  medium    
          Radial quadrature: Mura-Knowles        
          Angular quadrature: Lebedev. 
          Tag              B.-S. Rad. Rad. Pts. Rad. Cut. Ang. Pts.
          ---              ---------- --------- --------- ---------
          C                   0.70       49          11.0       434
          H                   0.35       45          12.0       434
          Grid pruning is: on 
          Number of quadrature shells:    94
          Spatial weights used:  Erf1

          Convergence Information
          -----------------------
          Convergence aids based upon iterative change in 
          total energy or number of iterations. 
          Levelshifting, if invoked, occurs when the 
          HOMO/LUMO gap drops below (HL_TOL): 1.00D-02
          DIIS, if invoked, will attempt to extrapolate 
          using up to (NFOCK): 10 stored Fock matrices.

                    Damping( 0%)  Levelshifting(0.5)       DIIS
                  --------------- ------------------- ---------------
          dE  on:    start            ASAP                start   
          dE off:    2 iters         30 iters            30 iters 


      Screening Tolerance Information
      -------------------------------
          Density screening/tol_rho: 1.00D-10
          AO Gaussian exp screening on grid/accAOfunc:  14
          CD Gaussian exp screening on grid/accCDfunc:  20
          XC Gaussian exp screening on grid/accXCfunc:  20
          Schwarz screening/accCoul: 1.00D-08


 Loading old vectors from job with title :

H4C1 dft optimize


      Symmetry analysis of molecular orbitals - initial
      -------------------------------------------------

  Numbering of irreducible representations: 

     1 a1          2 a2          3 e           4 t1          5 t2      

  Orbital symmetries:

     1 a1          2 a1          3 t2          4 t2          5 t2      
     6 a1          7 t2          8 t2          9 t2         10 t2      
    11 t2         12 t2         13 a1         14 t2         15 t2      

   Time after variat. SCF:      2.2
   Time prior to 1st pass:      2.2

 Integral file          = ./H4C1.aoints.0
 Record size in doubles =  65536        No. of integs per rec  =  43688
 Max. records in memory =      5        Max. records in file   = 189277
 No. of bits per label  =      8        No. of bits per value  =     64


 #quartets = 1.419D+04 #integrals = 2.967D+05 #direct =  0.0% #cached =100.0%


 Grid_pts file          = ./H4C1.gridpts.0
 Record size in doubles =  12289        No. of grid_pts per rec  =   3070
 Max. records in memory =     16        Max. recs in file   =   1009390


           Memory utilization after 1st SCF pass: 
           Heap Space remaining (MW):       12.58            12580653
          Stack Space remaining (MW):       13.11            13106829

   convergence    iter        energy       DeltaE   RMS-Dens  Diis-err    time
 ---------------- ----- ----------------- --------- --------- ---------  ------
 d= 0,ls=0.0,diis     1    -40.5212154102 -5.39D+01  2.64D-05  9.13D-08     2.4
 d= 0,ls=0.0,diis     2    -40.5212154220 -1.18D-08  1.86D-06  5.98D-09     2.5
 d= 0,ls=0.0,diis     3    -40.5212154220  1.12D-11  8.28D-07  5.86D-09     2.5
 d= 0,ls=0.0,diis     4    -40.5212154227 -7.52D-10  2.35D-08  1.47D-12     2.6
 d= 0,ls=0.0,diis     5    -40.5212154227 -1.02D-11  1.99D-09  1.55D-14     2.6
  Singularity in Pulay matrix. Error and Fock matrices removed. 
  Singularity in Pulay matrix. Error and Fock matrices removed. 
  Resetting Diis
 d= 0,ls=0.0,diis     6    -40.5212154227  2.98D-12  4.43D-10  4.42D-17     2.7
 d= 0,ls=0.0,diis     7    -40.5212154227 -5.14D-12  2.04D-10  1.56D-19     2.8


         Total DFT energy =      -40.521215422720
      One electron energy =      -79.634662975366
           Coulomb energy =       32.649679681975
    Exchange-Corr. energy =       -6.888551519089
 Nuclear repulsion energy =       13.352319389760

[...]
    30      3.277174  1 C  dxx               35     -2.938872  1 C  dzz        
    66     -1.936111  2 H  px                91      1.936111  3 H  px         
   116     -1.936111  4 H  px               141      1.936111  5 H  px         
    68     -1.736247  2 H  pz                93     -1.736247  3 H  pz         
   118      1.736247  4 H  pz               143      1.736247  5 H  pz         

 Vector   19  Occ=0.000000D+00  E= 3.432886D-01  Symmetry=a1
              MO Center=  2.6D-14, -1.3D-14,  9.5D-14, r^2= 1.0D+01
   Bfn.  Coefficient  Atom+Function         Bfn.  Coefficient  Atom+Function  
  ----- ------------  ---------------      ----- ------------  ---------------
     5     10.723759  1 C  s                  4     -4.474752  1 C  s          
    58     -3.859526  2 H  s                 83     -3.859526  3 H  s          
   108     -3.859526  4 H  s                133     -3.859526  5 H  s          
    57      1.281646  2 H  s                 82      1.281646  3 H  s          
   107      1.281646  4 H  s                132      1.281646  5 H  s          

 Vector   20  Occ=0.000000D+00  E= 3.556590D-01  Symmetry=t2
              MO Center= -2.1D-02,  2.1D-01, -3.2D-03, r^2= 1.1D+01
   Bfn.  Coefficient  Atom+Function         Bfn.  Coefficient  Atom+Function  
  ----- ------------  ---------------      ----- ------------  ---------------
    14     12.208869  1 C  pz               108     -9.507375  4 H  s          
    83      9.257466  3 H  s                 58      6.993271  2 H  s          
   133     -6.743361  5 H  s                 17      4.757650  1 C  pz         
    31     -3.458082  1 C  dxy              109     -3.226604  4 H  s          
    84      3.141790  3 H  s                 59      2.373370  2 H  s          

 Vector   21  Occ=0.000000D+00  E= 3.556590D-01  Symmetry=t2
              MO Center= -8.9D-02, -1.4D-01,  6.1D-01, r^2= 1.1D+01
   Bfn.  Coefficient  Atom+Function         Bfn.  Coefficient  Atom+Function  
  ----- ------------  ---------------      ----- ------------  ---------------
    58     12.239644  2 H  s                 12    -10.434022  1 C  px         
    83    -10.222880  3 H  s                 13     -6.441645  1 C  py         
    59      4.153879  2 H  s                 15     -4.066014  1 C  px         
   133     -3.665428  5 H  s                 84     -3.469432  3 H  s          
    34      2.955368  1 C  dyz               16     -2.510232  1 C  py         

 Vector   22  Occ=0.000000D+00  E= 3.556590D-01  Symmetry=t2
              MO Center=  1.1D-01, -6.6D-02, -6.1D-01, r^2= 1.1D+01
   Bfn.  Coefficient  Atom+Function         Bfn.  Coefficient  Atom+Function  
  ----- ------------  ---------------      ----- ------------  ---------------
   133     11.997664  5 H  s                 13    -10.541786  1 C  py         
   108    -10.475874  4 H  s                 12      6.342155  1 C  px         
    16     -4.108008  1 C  py               134      4.071756  5 H  s          
    83     -3.555875  3 H  s                109     -3.555292  4 H  s          
    32      2.985892  1 C  dxz               15      2.471462  1 C  px         

 Vector   23  Occ=0.000000D+00  E= 3.974990D-01  Symmetry=t1
              MO Center= -7.9D-04, -2.3D-02,  2.0D-02, r^2= 8.3D+00
   Bfn.  Coefficient  Atom+Function         Bfn.  Coefficient  Atom+Function  
  ----- ------------  ---------------      ----- ------------  ---------------
    92      1.508717  3 H  py               117     -1.508717  4 H  py         
   118     -1.501226  4 H  pz               143      1.501226  5 H  pz         
    68      1.399526  2 H  pz                93     -1.399526  3 H  pz         
    67      1.392035  2 H  py               142     -1.392035  5 H  py         
    49     -0.694330  1 C  fxyy              51      0.694330  1 C  fxzz       

 Vector   24  Occ=0.000000D+00  E= 3.974990D-01  Symmetry=t1
              MO Center= -2.8D-01,  2.3D-02, -1.9D-02, r^2= 8.2D+00
   Bfn.  Coefficient  Atom+Function         Bfn.  Coefficient  Atom+Function  
  ----- ------------  ---------------      ----- ------------  ---------------
    91      2.039578  3 H  px               141     -2.039578  5 H  px         
    67      1.205892  2 H  py               142     -1.205892  5 H  py         
    92     -1.051219  3 H  py               117      1.051219  4 H  py         
    68      0.988358  2 H  pz                93     -0.988358  3 H  pz         
   118      0.833685  4 H  pz               143     -0.833685  5 H  pz         

 Vector   25  Occ=0.000000D+00  E= 3.974990D-01  Symmetry=t1
              MO Center=  2.8D-01, -7.1D-04, -8.8D-04, r^2= 8.2D+00
   Bfn.  Coefficient  Atom+Function         Bfn.  Coefficient  Atom+Function  
  ----- ------------  ---------------      ----- ------------  ---------------
    66      2.042494  2 H  px               116     -2.042494  4 H  px         
    68      1.132976  2 H  pz                93     -1.132976  3 H  pz         
   118      1.127142  4 H  pz               143     -1.127142  5 H  pz         
    92      0.915353  3 H  py               117     -0.915353  4 H  py         
    67     -0.909518  2 H  py               142      0.909518  5 H  py         

 Vector   26  Occ=0.000000D+00  E= 4.034726D-01  Symmetry=a1
              MO Center=  1.9D-14, -2.0D-14,  7.4D-14, r^2= 1.1D+01
   Bfn.  Coefficient  Atom+Function         Bfn.  Coefficient  Atom+Function  
  ----- ------------  ---------------      ----- ------------  ---------------
     5     11.159390  1 C  s                  4      5.521440  1 C  s          
    30     -4.699883  1 C  dxx               33     -4.699883  1 C  dyy        
    35     -4.699883  1 C  dzz               57     -1.951918  2 H  s          
    82     -1.951918  3 H  s                107     -1.951918  4 H  s          
   132     -1.951918  5 H  s                 58      1.787412  2 H  s          

 Vector   27  Occ=0.000000D+00  E= 4.265594D-01  Symmetry=t2
              MO Center= -3.1D-02, -1.3D-01, -5.0D-03, r^2= 8.2D+00
   Bfn.  Coefficient  Atom+Function         Bfn.  Coefficient  Atom+Function  
  ----- ------------  ---------------      ----- ------------  ---------------
    14      8.909254  1 C  pz                83      7.160125  3 H  s          
   108     -6.683650  4 H  s                133     -5.222491  5 H  s          
    58      4.746016  2 H  s                 31      4.507249  1 C  dxy        
    92      2.730346  3 H  py               117     -2.705446  4 H  py         
    91      2.481660  3 H  px               141     -2.380404  5 H  px         

 Vector   28  Occ=0.000000D+00  E= 4.265594D-01  Symmetry=t2
              MO Center=  5.6D-02,  1.2D-02, -1.6D-01, r^2= 8.2D+00
   Bfn.  Coefficient  Atom+Function         Bfn.  Coefficient  Atom+Function  
  ----- ------------  ---------------      ----- ------------  ---------------
    13      8.818056  1 C  py                58     -7.564441  2 H  s          
    83      6.690723  3 H  s                108      5.093543  4 H  s          
    32      4.461111  1 C  dxz              133     -4.219825  5 H  s          
    68     -2.821492  2 H  pz                93      2.775833  3 H  pz         
    66      2.549656  2 H  px               116     -2.420532  4 H  px         

 Vector   29  Occ=0.000000D+00  E= 4.265594D-01  Symmetry=t2
              MO Center= -2.5D-02,  1.1D-01,  1.6D-01, r^2= 8.2D+00
   Bfn.  Coefficient  Atom+Function         Bfn.  Coefficient  Atom+Function  
  ----- ------------  ---------------      ----- ------------  ---------------
    12      8.722575  1 C  px               133      8.013857  5 H  s          
   108     -6.219959  4 H  s                 58     -5.436709  2 H  s          
    34      4.412807  1 C  dyz               83      3.642810  3 H  s          
   143     -2.841343  5 H  pz               118      2.747598  4 H  pz         
   142     -2.708036  5 H  py                67      2.573361  2 H  py         

 Vector   30  Occ=0.000000D+00  E= 4.613517D-01  Symmetry=t2
              MO Center=  3.7D-02, -6.6D-02,  1.6D-02, r^2= 8.0D+00
   Bfn.  Coefficient  Atom+Function         Bfn.  Coefficient  Atom+Function  
  ----- ------------  ---------------      ----- ------------  ---------------
   108     31.932900  4 H  s                 83    -22.494412  3 H  s          
    14    -17.027738  1 C  pz                58    -15.348479  2 H  s          
    31     10.056786  1 C  dxy               12     -7.462305  1 C  px         
   133      5.909990  5 H  s                118     -5.796243  4 H  pz         
    93     -4.692793  3 H  pz               116     -4.637352  4 H  px         

 Vector   31  Occ=0.000000D+00  E= 4.613517D-01  Symmetry=t2
              MO Center= -1.8D-02, -5.9D-03, -5.5D-02, r^2= 8.0D+00
   Bfn.  Coefficient  Atom+Function         Bfn.  Coefficient  Atom+Function  
  ----- ------------  ---------------      ----- ------------  ---------------
    83     28.708384  3 H  s                 58    -24.407139  2 H  s          
    13     18.045818  1 C  py               133    -15.698360  5 H  s          
   108     11.397114  4 H  s                 32    -10.658077  1 C  dxz        
    12      5.853974  1 C  px                92      5.542611  3 H  py         
    67      5.039754  2 H  py                91      4.065519  3 H  px         

 Vector   32  Occ=0.000000D+00  E= 4.613517D-01  Symmetry=t2
              MO Center= -1.9D-02,  7.1D-02,  3.8D-02, r^2= 8.0D+00
   Bfn.  Coefficient  Atom+Function         Bfn.  Coefficient  Atom+Function  
  ----- ------------  ---------------      ----- ------------  ---------------
   133     32.646483  5 H  s                 58    -22.712884  2 H  s          
    12     16.544222  1 C  px               108    -14.055427  4 H  s          
    34     -9.771216  1 C  dyz               14     -8.365208  1 C  pz         
   141      5.821088  5 H  px                31      4.940592  1 C  dxy        
   143     -4.830167  5 H  pz                66      4.659755  2 H  px         

 Vector   33  Occ=0.000000D+00  E= 5.191818D-01  Symmetry=e
              MO Center=  3.8D-14, -1.1D-15,  3.4D-14, r^2= 6.8D+00
   Bfn.  Coefficient  Atom+Function         Bfn.  Coefficient  Atom+Function  
  ----- ------------  ---------------      ----- ------------  ---------------
    33      8.910936  1 C  dyy               35     -4.597991  1 C  dzz        
    30     -4.312945  1 C  dxx               67     -4.046300  2 H  py         
    92      4.046300  3 H  py               117      4.046300  4 H  py         
   142     -4.046300  5 H  py                68     -2.087867  2 H  pz         
    93     -2.087867  3 H  pz               118      2.087867  4 H  pz         


------------------------------------------------------------
EAF file 6: "./H4C1.aoints.0" size=67108864 bytes
------------------------------------------------------------
               write      read    awrite     aread      wait
               -----      ----    ------     -----      ----
     calls:      128         9         0      1143      1143
   data(b): 6.71e+07  4.72e+06  0.00e+00  5.99e+08
   time(s): 4.81e-02  1.08e-03  0.00e+00  1.24e-01  2.08e-04
rate(mb/s): 1.40e+03  4.37e+03  0.00e+00* 4.84e+03*
------------------------------------------------------------
* = Effective rate.  Full wait time used for read and write.


   alpha - beta orbital overlaps 
   ----------------------------- 


   alpha      1      2      3      4      5      6      7      8      9     10
    beta      1      2      3      4      5      6      7      8      9     10
 overlap   1.000  1.000  0.725  0.970  0.735  0.999  0.914  0.794  0.867  0.992


   alpha     11     12     13     14     15     16     17     18     19     20
    beta     12     11     13     14     16     15     18     17     19     20
 overlap   0.986  0.991  0.999  0.995  0.895  0.897  0.766  0.766  0.999  0.859


   alpha     21     22     23     24     25     26     27     28     29     30
    beta     21     22     23     25     24     26     27     29     28     30
 overlap   0.725  0.861  0.796  0.797  0.955  0.999  0.987  0.885  0.893  0.889


   alpha     31     32     33     34     35     36     37     38     39     40
    beta     32     31     34     33     37     35     36     38     39     40
 overlap   0.891  0.991  0.993  0.993  0.966  0.968  0.968  1.000  0.734  0.963


   alpha     41     42     43     44     45     46     47     48     49     50
    beta     41     42     43     45     44     47     46     48     50     49
 overlap   0.770  1.000  0.974  0.854  0.860  0.973  0.996  0.974  0.716  0.716


   alpha     51     52     53     54     55     56     57     58     59     60
    beta     53     51     52     54     56     55     58     57     59     60
 overlap   0.683  0.933  0.749  0.944  0.937  0.987  0.996  0.996  0.744  0.981


   alpha     61     62     63     64     65     66     67     68     69     70
    beta     61     62     64     63     65     66     67     68     70     69
 overlap   0.757  1.000  0.954  0.954  0.783  0.687  0.829  1.000  0.942  0.793


   alpha     71     72     73     74     75     76     77     78     79     80
    beta     71     74     72     74     75     76     76     78     80     81
 overlap   0.843  0.709  0.942  0.704  0.899  0.665  0.718  1.000  0.889  0.893


   alpha     81     82     83     84     85     86     87     88     89     90
    beta     79     84     82     82     85     87     86     88     89     90
 overlap   0.927  0.817  0.732  0.679  1.000  0.918  0.912  0.924  0.939  0.939


   alpha     91     92     93     94     95     96     97     98     99    100
    beta     92     93     91     94     97     95     96     98     99    101
 overlap   0.767  0.654  0.887  1.000  0.874  0.897  0.964  0.904  0.904  0.937


   alpha    101    102    103    104    105    106    107    108    109    110
    beta    102    100    104    105    103    106    108    107    109    111
 overlap   0.893  0.947  0.898  0.864  0.776  0.998  0.828  0.826  1.000  0.876


   alpha    111    112    113    114    115    116    117    118    119    120
    beta    110    112    113    114    113    116    117    118    121    119
 overlap   0.768  0.831  0.716  0.778  0.635  1.000  0.996  0.996  0.912  0.691


   alpha    121    122    123    124    125    126    127    128    129    130
    beta    119    122    123    124    126    125    129    127    128    132
 overlap   0.715  0.847  0.847  0.886  0.809  0.723  0.978  0.906  0.893  0.626


   alpha    131    132    133    134    135    136    137    138    139    140
    beta    130    132    133    136    134    135    137    138    140    139
 overlap   0.844  0.765  1.000  0.877  0.937  0.899  1.000  1.000  0.933  0.747


   alpha    141    142    143    144    145    146    147    148    149    150
    beta    141    142    145    144    143    146    148    149    148    150
 overlap   0.688  1.000  0.905  0.923  0.975  1.000  0.657  0.741  0.749  1.000


   alpha    151    152    153    154
    beta    151    153    152    154
 overlap   0.848  0.715  0.856  1.000

     --------------------------
     Expectation value of S2:  
     --------------------------
      <S2> =      0.7500 (Exact =     0.7500)


 center of mass
 --------------
 x =   0.00000000 y =   0.00000000 z =   0.00000000

 moments of inertia (a.u.)
 ------------------
          11.544939781754           0.000000000000           0.000000000000
           0.000000000000          11.544939781754           0.000000000000
           0.000000000000           0.000000000000          11.544939781754

     Multipole analysis of the density
     ---------------------------------

     L   x y z        total         alpha         beta         nuclear
     -   - - -        -----         -----         ----         -------
     0   0 0 0     -1.000000     -6.000000     -5.000000     10.000000

     1   1 0 0     -0.000000     -0.000000      0.000000      0.000000
     1   0 1 0      0.000000      0.000000     -0.000000      0.000000
     1   0 0 1      0.000000      0.000000     -0.000000      0.000000

     2   2 0 0    -28.905704    -28.546784     -6.086571      5.727651
     2   1 1 0      0.000000      0.000000      0.000000      0.000000
     2   1 0 1     -0.000000      0.000000     -0.000000      0.000000
     2   0 2 0    -28.905704    -28.546784     -6.086571      5.727651
     2   0 1 1      0.000000      0.000000      0.000000      0.000000
     2   0 0 2    -28.905704    -28.546784     -6.086571      5.727651


 Parallel integral file used     252 records with       0 large values


 Task  times  cpu:       31.6s     wall:       31.7s
 Summary of allocated global arrays
-----------------------------------
  No active global arrays



                         GA Statistics for process    0
                         ------------------------------

       create   destroy   get      put      acc     scatter   gather  read&inc
calls: 3500     3500     1.13e+06 1.52e+05 7.83e+05  392        0     8898     
number of processes/call 1.00e+00 1.00e+00 1.00e+00 1.00e+00 0.00e+00
bytes total:             2.89e+09 4.29e+08 2.28e+09 1.00e+07 0.00e+00 3.56e+04
bytes remote:            0.00e+00 0.00e+00 0.00e+00 0.00e+00 0.00e+00 0.00e+00
Max memory consumed for GA by this process: 12493000 bytes
MA_summarize_allocated_blocks: starting scan ...
MA_summarize_allocated_blocks: scan completed: 0 heap blocks, 0 stack blocks
MA usage statistics:

	allocation statistics:
					      heap	     stack
					      ----	     -----
	current number of blocks	         0	         0
	maximum number of blocks	        26	        52
	current total bytes		         0	         0
	maximum total bytes		  67889024	  82621744
	maximum total K-bytes		     67890	     82622
	maximum total M-bytes		        68	        83


                                NWChem Input Module
                                -------------------





                                     CITATION
                                     --------
                Please cite the following reference when publishing
                           results obtained with NWChem:

                 M. Valiev, E.J. Bylaska, N. Govind, K. Kowalski,
              T.P. Straatsma, H.J.J. van Dam, D. Wang, J. Nieplocha,
                        E. Apra, T.L. Windus, W.A. de Jong
                 "NWChem: a comprehensive and scalable open-source
                  solution for large scale molecular simulations"
                      Comput. Phys. Commun. 181, 1477 (2010)
                           doi:10.1016/j.cpc.2010.04.018

                              AUTHORS & CONTRIBUTORS
                              ----------------------
          E. Apra, E. J. Bylaska, W. A. de Jong, N. Govind, K. Kowalski,
       T. P. Straatsma, M. Valiev, H. J. J. van Dam, D. Wang, T. L. Windus,
        J. Hammond, J. Autschbach, K. Bhaskaran-Nair, J. Brabec, K. Lopata,
     F. Aquino, S. Hirata, M. T. Hackler, J. Mullin, P. Nichols, R. Peverati,
    J. Pittner, Y. Zhao, P.-D. Fan, R. J. Harrison, M. Dupuis, D. Silverstein,
    D. M. A. Smith, J. Nieplocha, V. Tipparaju, M. Krishnan, B. E. Van Kuiken,
        A. Vazquez-Mayagoitia, L. Jensen, M. Swart, Q. Wu, T. Van Voorhis,
     A. A. Auer, M. Nooijen, L. D. Crosby, E. Brown, G. Cisneros, G. I. Fann,
     H. Fruchtl, J. Garza, K. Hirao, R. Kendall, J. A. Nichols, K. Tsemekhman,
      K. Wolinski, J. Anchell, D. Bernholdt, P. Borowski, T. Clark, D. Clerc,
      H. Dachsel, M. Deegan, K. Dyall, D. Elwood, E. Glendening, M. Gutowski,
      A. Hess, J. Jaffe, B. Johnson, J. Ju, R. Kobayashi, R. Kutteh, Z. Lin,
   R. Littlefield, X. Long, B. Meng, T. Nakajima, S. Niu, L. Pollack, M. Rosing,
   K. Glaesemann, G. Sandrone, M. Stave, H. Taylor, G. Thomas, J. H. van Lenthe,
                                A. Wong, Z. Zhang.

 Total times  cpu:      207.2s     wall:      207.8s
