gethugepagesize()=2097152
hugetlb_default_page_size=2097152
_SC_PAGESIZE=4096
comex_page_size=2097152
comex_is_using_huge_pages=1
malloc_is_using_huge_pages=1
 argument  1 = mol.nw
                                         
                                         
 
 
              Northwest Computational Chemistry Package (NWChem) 6.3
              ------------------------------------------------------
 
 
                    Environmental Molecular Sciences Laboratory
                       Pacific Northwest National Laboratory
                                Richland, WA 99352
 
                              Copyright (c) 1994-2012
                       Pacific Northwest National Laboratory
                            Battelle Memorial Institute
 
             NWChem is an open-source computational chemistry package
                        distributed under the terms of the
                      Educational Community License (ECL) 2.0
             A copy of the license is included with this distribution
                              in the LICENSE.TXT file
 
                                  ACKNOWLEDGMENT
                                  --------------

            This software and its documentation were developed at the
            EMSL at Pacific Northwest National Laboratory, a multiprogram
            national laboratory, operated for the U.S. Department of Energy
            by Battelle under Contract Number DE-AC05-76RL01830. Support
            for this work was provided by the Department of Energy Office
            of Biological and Environmental Research, Office of Basic
            Energy Sciences, and the Office of Advanced Scientific Computing.


           Job information
           ---------------

    hostname        = nid02974
    program         = nwchem
    date            = Wed Sep  4 17:29:15 2013

    compiled        = Sat_Aug_31_14:18:53_2013
    source          = /usr/common/usg/nwchem/Build/nwchem-6.3-src.2013-05-28
    nwchem branch   = 6.3
    nwchem revision = 24277
    ga revision     = 10379
    input           = mol.nw
    prefix          = mol.
    data base       = ./mol.db
    status          = startup
    nproc           =       24
    time left       =     -1s



           Memory information
           ------------------

    heap     =   13107201 doubles =    100.0 Mbytes
    stack    =   13107201 doubles =    100.0 Mbytes
    global   =   26214400 doubles =    200.0 Mbytes (distinct from heap & stack)
    total    =   52428802 doubles =    400.0 Mbytes
    verify   = yes
    hardfail = no 


           Directory information
           ---------------------
 
  0 permanent = .
  0 scratch   = .
 
 
 
 
                                NWChem Input Module
                                -------------------
 
 

 Scaling coordinates for geometry "geometry" by  1.889725989
 (inverse scale =  0.529177249)

 C1  symmetry detected

          ------
          auto-z
          ------
  autoz: The atoms group into disjoint clusters
 cluster   1:    1    3    4 
 cluster   2:    2    5    6 
 Connecting clusters   1   2 via atoms    4    2 r = 1.95
  autoz: regenerating connections with new bonds
 
 
                             Geometry "geometry" -> ""
                             -------------------------
 
 Output coordinates in angstroms (scale by  1.889725989 to convert to a.u.)
 
  No.       Tag          Charge          X              Y              Z
 ---- ---------------- ---------- -------------- -------------- --------------
    1 O                    8.0000     0.06484449     1.49761505     0.00029373
    2 O                    8.0000    -0.07345853    -1.41200187    -0.00044537
    3 H                    1.0000    -0.80901312     1.91284040    -0.00377840
    4 H                    1.0000    -0.12474734     0.54118735    -0.00084233
    5 H                    1.0000     0.50584369    -1.56937185    -0.76315169
    6 H                    1.0000     0.49682903    -1.56956133     0.76898556
 
      Atomic Mass 
      ----------- 
 
      O                 15.994910
      H                  1.007825
 

 Effective nuclear repulsion energy (a.u.)      36.5535657009

            Nuclear Dipole moment (a.u.) 
            ----------------------------
        X                 Y               Z
 ---------------- ---------------- ----------------
    -0.0000000000     0.0000000000     0.0000000000
 


                                Z-matrix (autoz)
                                -------- 

 Units are Angstrom for bonds and degrees for angles
 
      Type          Name      I     J     K     L     M      Value
      ----------- --------  ----- ----- ----- ----- ----- ----------
    1 Stretch                  1     3                       0.96750
    2 Stretch                  1     4                       0.97504
    3 Stretch                  2     4                       1.95386
    4 Stretch                  2     5                       0.97061
    5 Stretch                  2     6                       0.97061
    6 Bend                     1     4     2               167.28324
    7 Bend                     3     1     4               104.20260
    8 Bend                     4     2     5               100.22926
    9 Bend                     4     2     6               100.24510
   10 Bend                     5     2     6               104.23685
   11 Torsion                  1     4     2     5         -53.34504
   12 Torsion                  1     4     2     6          53.30755
   13 Torsion                  2     4     1     3        -179.91695
 
 
            XYZ format geometry
            -------------------
     6
 geometry
 O                     0.06484449     1.49761505     0.00029373
 O                    -0.07345853    -1.41200187    -0.00044537
 H                    -0.80901312     1.91284040    -0.00377840
 H                    -0.12474734     0.54118735    -0.00084233
 H                     0.50584369    -1.56937185    -0.76315169
 H                     0.49682903    -1.56956133     0.76898556
 
 ==============================================================================
                                internuclear distances
 ------------------------------------------------------------------------------
       center one      |      center two      | atomic units |  angstroms
 ------------------------------------------------------------------------------
    3 H                |   1 O                |     1.82831  |     0.96750
    4 H                |   1 O                |     1.84256  |     0.97504
    5 H                |   2 O                |     1.83418  |     0.97061
    6 H                |   2 O                |     1.83418  |     0.97061
 ------------------------------------------------------------------------------
                         number of included internuclear distances:          4
 ==============================================================================



 ==============================================================================
                                 internuclear angles
 ------------------------------------------------------------------------------
        center 1       |       center 2       |       center 3       |  degrees
 ------------------------------------------------------------------------------
    3 H                |   1 O                |   4 H                |   104.20
    5 H                |   2 O                |   6 H                |   104.24
 ------------------------------------------------------------------------------
                            number of included internuclear angles:          2
 ==============================================================================



                                 H4O2 dft optimize
                                 -----------------
  library name resolved from: environment
  library file name is: </usr/common/usg/nwchem/6.3/data/libraries/>
  
                      Basis "ao basis" -> "" (cartesian)
                      -----
  H (Hydrogen)
  ------------
            Exponent  Coefficients 
       -------------- ---------------------------------------------------------
  1 S  1.87311370E+01  0.033495
  1 S  2.82539370E+00  0.234727
  1 S  6.40121700E-01  0.813757
 
  2 S  1.61277800E-01  1.000000
 
  3 S  3.60000000E-02  1.000000
 
  O (Oxygen)
  ----------
            Exponent  Coefficients 
       -------------- ---------------------------------------------------------
  1 S  5.48467170E+03  0.001831
  1 S  8.25234950E+02  0.013950
  1 S  1.88046960E+02  0.068445
  1 S  5.29645000E+01  0.232714
  1 S  1.68975700E+01  0.470193
  1 S  5.79963530E+00  0.358521
 
  2 S  1.55396160E+01 -0.110778
  2 S  3.59993360E+00 -0.148026
  2 S  1.01376180E+00  1.130767
 
  3 P  1.55396160E+01  0.070874
  3 P  3.59993360E+00  0.339753
  3 P  1.01376180E+00  0.727159
 
  4 S  2.70005800E-01  1.000000
 
  5 P  2.70005800E-01  1.000000
 
  6 S  8.45000000E-02  1.000000
 
  7 P  8.45000000E-02  1.000000
 
  8 D  8.00000000E-01  1.000000
 


 Summary of "ao basis" -> "" (cartesian)
 ------------------------------------------------------------------------------
       Tag                 Description            Shells   Functions and Types
 ---------------- ------------------------------  ------  ---------------------
 H                          6-31++G*                 3        3   3s
 O                          6-31++G*                 8       19   4s3p1d


 
 
                           NWChem Geometry Optimization
                           ----------------------------
 
 
 
 
                                 H4O2 dft optimize
 
 
 maximum gradient threshold         (gmax) =   0.000450
 rms gradient threshold             (grms) =   0.000300
 maximum cartesian step threshold   (xmax) =   0.001800
 rms cartesian step threshold       (xrms) =   0.001200
 fixed trust radius                (trust) =   0.300000
 maximum step size to saddle      (sadstp) =   0.100000
 energy precision                  (eprec) =   5.0D-06
 maximum number of steps          (nptopt) =   20
 initial hessian option           (inhess) =    0
 line search option               (linopt) =    1
 hessian update option            (modupd) =    1
 saddle point option              (modsad) =    0
 initial eigen-mode to follow     (moddir) =    0
 initial variable to follow       (vardir) =    0
 follow first negative mode     (firstneg) =    T
 apply conjugacy                    (opcg) =    F
 source of zmatrix                         =   autoz   


          -------------------
          Energy Minimization
          -------------------

 
 Names of Z-matrix variables 
    1              2              3              4              5         
    6              7              8              9             10         
   11             12             13         
 
 Variables with the same non-blank name are constrained to be equal
 
 
 Using diagonal initial Hessian 
 Scaling for Hessian diagonals: bonds = 1.00  angles = 0.25  torsions = 0.10

          --------
          Step   0
          --------
 
 
                         Geometry "geometry" -> "geometry"
                         ---------------------------------
 
 Output coordinates in angstroms (scale by  1.889725989 to convert to a.u.)
 
  No.       Tag          Charge          X              Y              Z
 ---- ---------------- ---------- -------------- -------------- --------------
    1 O                    8.0000     0.06484449     1.49761505     0.00029373
    2 O                    8.0000    -0.07345853    -1.41200187    -0.00044537
    3 H                    1.0000    -0.80901312     1.91284040    -0.00377840
    4 H                    1.0000    -0.12474734     0.54118735    -0.00084233
    5 H                    1.0000     0.50584369    -1.56937185    -0.76315169
    6 H                    1.0000     0.49682903    -1.56956133     0.76898556
 
      Atomic Mass 
      ----------- 
 
      O                 15.994910
      H                  1.007825
 

 Effective nuclear repulsion energy (a.u.)      36.5535657009

            Nuclear Dipole moment (a.u.) 
            ----------------------------
        X                 Y               Z
 ---------------- ---------------- ----------------
    -0.0000000000     0.0000000000     0.0000000000
 
 
                                 NWChem DFT Module
                                 -----------------
 
 
                                 H4O2 dft optimize
 
 
  Caching 1-el integrals 
 
            General Information
            -------------------
          SCF calculation type: DFT
          Wavefunction type:  closed shell.
          No. of atoms     :     6
          No. of electrons :    20
           Alpha electrons :    10
            Beta electrons :    10
          Charge           :     0
          Spin multiplicity:     1
          Use of symmetry is: off; symmetry adaption is: off
          Maximum number of iterations: 300
          AO basis - number of functions:    50
                     number of shells:    28
          Convergence on energy requested: 1.00D-06
          Convergence on density requested: 1.00D-05
          Convergence on gradient requested: 5.00D-04
 
              XC Information
              --------------
                         B3LYP Method XC Potential
                     Hartree-Fock (Exact) Exchange  0.200          
                        Slater Exchange Functional  0.800 local    
                    Becke 1988 Exchange Functional  0.720 non-local
              Lee-Yang-Parr Correlation Functional  0.810          
                  VWN I RPA Correlation Functional  0.190 local    
 
             Grid Information
             ----------------
          Grid used for XC integration:  medium    
          Radial quadrature: Mura-Knowles        
          Angular quadrature: Lebedev. 
          Tag              B.-S. Rad. Rad. Pts. Rad. Cut. Ang. Pts.
          ---              ---------- --------- --------- ---------
          O                   0.60       49          13.0       434
          H                   0.35       45          14.0       434
          Grid pruning is: on 
          Number of quadrature shells:   278
          Spatial weights used:  Erf1
 
          Convergence Information
          -----------------------
          Convergence aids based upon iterative change in 
          total energy or number of iterations. 
          Levelshifting, if invoked, occurs when the 
          HOMO/LUMO gap drops below (HL_TOL): 1.00D-02
          DIIS, if invoked, will attempt to extrapolate 
          using up to (NFOCK): 10 stored Fock matrices.

                    Damping( 0%)  Levelshifting(0.5)       DIIS
                  --------------- ------------------- ---------------
          dE  on:    start            ASAP                start   
          dE off:    2 iters        300 iters           300 iters 

 
      Screening Tolerance Information
      -------------------------------
          Density screening/tol_rho: 1.00D-10
          AO Gaussian exp screening on grid/accAOfunc:  14
          CD Gaussian exp screening on grid/accCDfunc:  20
          XC Gaussian exp screening on grid/accXCfunc:  20
          Schwarz screening/accCoul: 1.00D-08

 
      Superposition of Atomic Density Guess
      -------------------------------------
 
 Sum of atomic energies:        -151.50868866
 
      Non-variational initial energy
      ------------------------------

 Total energy =    -151.832709
 1-e energy   =    -279.626300
 2-e energy   =      91.240026
 HOMO         =      -0.479844
 LUMO         =       0.003457
 
   Time after variat. SCF:      2.4
   Time prior to 1st pass:      2.4

 Grid_pts file          = ./mol.gridpts.00
 Record size in doubles =  12289        No. of grid_pts per rec  =   3070
 Max. records in memory =      3        Max. recs in file   =  42218779


           Memory utilization after 1st SCF pass: 
           Heap Space remaining (MW):        6.78             6776295
          Stack Space remaining (MW):       13.11            13106773

   convergence    iter        energy       DeltaE   RMS-Dens  Diis-err    time
 ---------------- ----- ----------------- --------- --------- ---------  ------
 d= 0,ls=0.0,diis     1   -152.7829423627 -1.89D+02  2.18D-02  7.04D-01     2.5
 d= 0,ls=0.0,diis     2   -152.7525081990  3.04D-02  1.07D-02  1.12D+00     2.6
 d= 0,ls=0.0,diis     3   -152.8526938603 -1.00D-01  1.53D-03  2.73D-02     2.7
 d= 0,ls=0.0,diis     4   -152.8551304478 -2.44D-03  3.06D-04  4.47D-04     2.8
 d= 0,ls=0.0,diis     5   -152.8551452256 -1.48D-05  1.46D-04  3.01D-04     2.9
  Resetting Diis
 d= 0,ls=0.0,diis     6   -152.8551723153 -2.71D-05  5.94D-06  1.02D-07     3.0
 d= 0,ls=0.0,diis     7   -152.8551723266 -1.13D-08  1.48D-06  4.02D-09     3.1


         Total DFT energy =     -152.855172326579
      One electron energy =     -282.168884346162
           Coulomb energy =      111.377562381485
    Exchange-Corr. energy =      -18.617416062835
 Nuclear repulsion energy =       36.553565700933

 Numeric. integr. density =       20.000008165461

     Total iterative time =      0.7s


 
                       DFT Final Molecular Orbital Analysis
                       ------------------------------------
 
 Vector    1  Occ=2.000000D+00  E=-1.919806D+01
              MO Center= -7.3D-02, -1.4D+00, -4.4D-04, r^2= 1.5D-02
   Bfn.  Coefficient  Atom+Function         Bfn.  Coefficient  Atom+Function  
  ----- ------------  ---------------      ----- ------------  ---------------
    20      0.992668  2 O  s          
 
 Vector    2  Occ=2.000000D+00  E=-1.914152D+01
              MO Center=  6.5D-02,  1.5D+00,  2.9D-04, r^2= 1.5D-02
   Bfn.  Coefficient  Atom+Function         Bfn.  Coefficient  Atom+Function  
  ----- ------------  ---------------      ----- ------------  ---------------
     1      0.992646  1 O  s          
 
 Vector    3  Occ=2.000000D+00  E=-1.050893D+00
              MO Center=  1.2D-01, -1.4D+00,  6.7D-04, r^2= 5.6D-01
   Bfn.  Coefficient  Atom+Function         Bfn.  Coefficient  Atom+Function  
  ----- ------------  ---------------      ----- ------------  ---------------
    21      0.471734  2 O  s                 25      0.450909  2 O  s          
    20     -0.210122  2 O  s          
 
 Vector    4  Occ=2.000000D+00  E=-9.960333D-01
              MO Center= -1.2D-01,  1.4D+00, -5.8D-04, r^2= 5.7D-01
   Bfn.  Coefficient  Atom+Function         Bfn.  Coefficient  Atom+Function  
  ----- ------------  ---------------      ----- ------------  ---------------
     2      0.468916  1 O  s                  6      0.464395  1 O  s          
     1     -0.210507  1 O  s          
 
 Vector    5  Occ=2.000000D+00  E=-5.664191D-01
              MO Center=  1.4D-01, -1.5D+00,  7.8D-04, r^2= 7.8D-01
   Bfn.  Coefficient  Atom+Function         Bfn.  Coefficient  Atom+Function  
  ----- ------------  ---------------      ----- ------------  ---------------
    24      0.526931  2 O  pz                28      0.280314  2 O  pz         
    45     -0.235591  5 H  s                 48      0.235595  6 H  s          
 
 Vector    6  Occ=2.000000D+00  E=-5.182946D-01
              MO Center= -1.3D-01,  1.3D+00, -6.6D-04, r^2= 1.0D+00
   Bfn.  Coefficient  Atom+Function         Bfn.  Coefficient  Atom+Function  
  ----- ------------  ---------------      ----- ------------  ---------------
     4      0.455894  1 O  py                 8      0.248907  1 O  py         
    39      0.233571  3 H  s                 42     -0.232372  4 H  s          
     3     -0.230219  1 O  px         
 
 Vector    7  Occ=2.000000D+00  E=-4.285961D-01
              MO Center= -1.4D-01, -1.2D+00, -8.5D-04, r^2= 1.1D+00
   Bfn.  Coefficient  Atom+Function         Bfn.  Coefficient  Atom+Function  
  ----- ------------  ---------------      ----- ------------  ---------------
    22      0.518897  2 O  px                26      0.321288  2 O  px         
    25     -0.298927  2 O  s                 21     -0.176123  2 O  s          
    23     -0.175067  2 O  py         
 
 Vector    8  Occ=2.000000D+00  E=-3.772813D-01
              MO Center=  9.1D-02,  9.8D-01,  4.0D-04, r^2= 2.1D+00
   Bfn.  Coefficient  Atom+Function         Bfn.  Coefficient  Atom+Function  
  ----- ------------  ---------------      ----- ------------  ---------------
     3      0.456339  1 O  px                 6      0.286861  1 O  s          
     7      0.274956  1 O  px                23     -0.202566  2 O  py         
     4      0.199454  1 O  py                 2      0.173911  1 O  s          
    22     -0.170255  2 O  px         
 
 Vector    9  Occ=2.000000D+00  E=-3.445860D-01
              MO Center= -1.3D-02, -8.8D-01, -1.1D-04, r^2= 2.1D+00
   Bfn.  Coefficient  Atom+Function         Bfn.  Coefficient  Atom+Function  
  ----- ------------  ---------------      ----- ------------  ---------------
    23      0.568150  2 O  py                27      0.388276  2 O  py         
     4      0.209920  1 O  py                 3      0.174994  1 O  px         
    22      0.151077  2 O  px         
 
 Vector   10  Occ=2.000000D+00  E=-2.964699D-01
              MO Center=  4.7D-02,  1.5D+00,  2.0D-04, r^2= 7.3D-01
   Bfn.  Coefficient  Atom+Function         Bfn.  Coefficient  Atom+Function  
  ----- ------------  ---------------      ----- ------------  ---------------
     5      0.639701  1 O  pz                 9      0.434138  1 O  pz         
 
 Vector   11  Occ=0.000000D+00  E=-3.571035D-02
              MO Center=  5.9D-01, -1.5D+00,  3.7D-03, r^2= 7.5D+00
   Bfn.  Coefficient  Atom+Function         Bfn.  Coefficient  Atom+Function  
  ----- ------------  ---------------      ----- ------------  ---------------
    29      0.661794  2 O  s                 47     -0.616035  5 H  s          
    50     -0.616109  6 H  s                 25      0.430253  2 O  s          
    46     -0.403708  5 H  s                 49     -0.403709  6 H  s          
    41     -0.312040  3 H  s                 26      0.189199  2 O  px         
    44      0.187357  4 H  s                  6      0.173056  1 O  s          
 
 Vector   12  Occ=0.000000D+00  E= 7.174543D-03
              MO Center= -9.9D-01,  1.7D+00, -4.7D-03, r^2= 9.4D+00
   Bfn.  Coefficient  Atom+Function         Bfn.  Coefficient  Atom+Function  
  ----- ------------  ---------------      ----- ------------  ---------------
    41      1.319365  3 H  s                 10     -0.724104  1 O  s          
    40      0.460656  3 H  s                 47     -0.370761  5 H  s          
    50     -0.370308  6 H  s                  6     -0.254236  1 O  s          
    29      0.241786  2 O  s                 11      0.177302  1 O  px         
     7      0.169054  1 O  px         
 
 Vector   13  Occ=0.000000D+00  E= 2.221683D-02
              MO Center=  7.2D-01, -1.7D+00,  4.2D-03, r^2= 1.0D+01
   Bfn.  Coefficient  Atom+Function         Bfn.  Coefficient  Atom+Function  
  ----- ------------  ---------------      ----- ------------  ---------------
    47      2.083203  5 H  s                 50     -2.083369  6 H  s          
    32      0.369533  2 O  pz                46      0.351047  5 H  s          
    49     -0.351081  6 H  s                 28      0.211075  2 O  pz         
    24      0.208416  2 O  pz         
 
 Vector   14  Occ=0.000000D+00  E= 6.881329D-02
              MO Center= -9.2D-02,  4.2D-01, -1.0D-03, r^2= 1.6D+01
   Bfn.  Coefficient  Atom+Function         Bfn.  Coefficient  Atom+Function  
  ----- ------------  ---------------      ----- ------------  ---------------
    44      5.164190  4 H  s                 41     -2.922557  3 H  s          
    47     -1.076221  5 H  s                 50     -1.074182  6 H  s          
    10     -0.842003  1 O  s                 12      0.451703  1 O  py         
    43      0.243951  4 H  s                 31     -0.202166  2 O  py         
    25     -0.157552  2 O  s          
 
 Vector   15  Occ=0.000000D+00  E= 1.231684D-01
              MO Center= -3.5D-01, -9.2D-01, -2.2D-03, r^2= 6.6D+00
   Bfn.  Coefficient  Atom+Function         Bfn.  Coefficient  Atom+Function  
  ----- ------------  ---------------      ----- ------------  ---------------
    29      1.415522  2 O  s                 30      1.271347  2 O  px         
    46     -0.424619  5 H  s                 49     -0.424651  6 H  s          
    11      0.418950  1 O  px                40      0.391706  3 H  s          
    31      0.350458  2 O  py                47     -0.334697  5 H  s          
    50     -0.334537  6 H  s                 26     -0.311825  2 O  px         
 
 Vector   16  Occ=0.000000D+00  E= 1.421611D-01
              MO Center=  7.6D-01, -5.1D-01,  4.3D-03, r^2= 9.3D+00
   Bfn.  Coefficient  Atom+Function         Bfn.  Coefficient  Atom+Function  
  ----- ------------  ---------------      ----- ------------  ---------------
    29      2.032163  2 O  s                 25     -1.200837  2 O  s          
    10      1.136496  1 O  s                 44     -0.999710  4 H  s          
    11     -0.627396  1 O  px                47     -0.620516  5 H  s          
    50     -0.620967  6 H  s                 43     -0.419297  4 H  s          
    12     -0.356615  1 O  py                46      0.268628  5 H  s          
 
 Vector   17  Occ=0.000000D+00  E= 1.674417D-01
              MO Center=  1.2D-01, -4.2D-03,  1.1D-03, r^2= 6.0D+00
   Bfn.  Coefficient  Atom+Function         Bfn.  Coefficient  Atom+Function  
  ----- ------------  ---------------      ----- ------------  ---------------
    46      1.246843  5 H  s                 49     -1.247055  6 H  s          
    13      0.795740  1 O  pz                32      0.637636  2 O  pz         
    28      0.487945  2 O  pz                 9     -0.329145  1 O  pz         
    24      0.230464  2 O  pz                 5     -0.200958  1 O  pz         
 
 Vector   18  Occ=0.000000D+00  E= 1.758232D-01
              MO Center= -3.1D-01,  9.2D-01, -1.8D-03, r^2= 1.0D+01
   Bfn.  Coefficient  Atom+Function         Bfn.  Coefficient  Atom+Function  
  ----- ------------  ---------------      ----- ------------  ---------------
    10      1.640319  1 O  s                 41     -1.001553  3 H  s          
     6     -0.788336  1 O  s                 25      0.756678  2 O  s          
    11     -0.710155  1 O  px                44     -0.704144  4 H  s          
    47      0.593293  5 H  s                 50      0.591978  6 H  s          
    40      0.584875  3 H  s                 46     -0.553873  5 H  s          
 
 Vector   19  Occ=0.000000D+00  E= 1.878244D-01
              MO Center= -1.4D-01,  6.4D-01, -4.2D-04, r^2= 9.0D+00
   Bfn.  Coefficient  Atom+Function         Bfn.  Coefficient  Atom+Function  
  ----- ------------  ---------------      ----- ------------  ---------------
    29      1.437872  2 O  s                  6     -1.096875  1 O  s          
    43      1.034340  4 H  s                 10      0.941205  1 O  s          
    41     -0.871066  3 H  s                 12      0.852937  1 O  py         
    31     -0.594587  2 O  py                46     -0.591439  5 H  s          
    49     -0.591402  6 H  s                 11      0.365081  1 O  px         
 
 Vector   20  Occ=0.000000D+00  E= 1.907250D-01
              MO Center=  4.3D-01, -6.8D-01,  2.6D-03, r^2= 9.1D+00
   Bfn.  Coefficient  Atom+Function         Bfn.  Coefficient  Atom+Function  
  ----- ------------  ---------------      ----- ------------  ---------------
    47      1.879496  5 H  s                 50     -1.879601  6 H  s          
    46     -0.857016  5 H  s                 49      0.858375  6 H  s          
    13      0.841611  1 O  pz                28     -0.581966  2 O  pz         
    32      0.483962  2 O  pz                24     -0.308042  2 O  pz         
     9     -0.299062  1 O  pz                 5     -0.171256  1 O  pz         
 
 Vector   21  Occ=0.000000D+00  E= 2.106747D-01
              MO Center= -3.8D-01, -8.3D-01, -2.5D-03, r^2= 7.8D+00
   Bfn.  Coefficient  Atom+Function         Bfn.  Coefficient  Atom+Function  
  ----- ------------  ---------------      ----- ------------  ---------------
    32      2.322557  2 O  pz                47      1.532200  5 H  s          
    50     -1.532439  6 H  s                 46      1.093247  5 H  s          
    49     -1.093845  6 H  s                 13     -0.581497  1 O  pz         
     9      0.182031  1 O  pz         
 
 Vector   22  Occ=0.000000D+00  E= 2.233171D-01
              MO Center=  4.1D-02, -4.7D-01,  8.1D-05, r^2= 9.0D+00
   Bfn.  Coefficient  Atom+Function         Bfn.  Coefficient  Atom+Function  
  ----- ------------  ---------------      ----- ------------  ---------------
    44      2.686747  4 H  s                 31     -1.697942  2 O  py         
    40      1.046111  3 H  s                 47     -0.959616  5 H  s          
    50     -0.958690  6 H  s                 10     -0.865567  1 O  s          
    12     -0.858425  1 O  py                41     -0.742725  3 H  s          
    29      0.738107  2 O  s                 30      0.614114  2 O  px         
 
 Vector   23  Occ=0.000000D+00  E= 2.423786D-01
              MO Center= -6.0D-02,  8.5D-01, -1.7D-04, r^2= 7.2D+00
   Bfn.  Coefficient  Atom+Function         Bfn.  Coefficient  Atom+Function  
  ----- ------------  ---------------      ----- ------------  ---------------
    44      2.381505  4 H  s                 41     -1.979412  3 H  s          
    29     -1.701942  2 O  s                 12      1.454633  1 O  py         
    46      1.077516  5 H  s                 49      1.077465  6 H  s          
    30     -0.522092  2 O  px                 8     -0.505863  1 O  py         
    10     -0.495140  1 O  s                 11     -0.390335  1 O  px         
 
 Vector   24  Occ=0.000000D+00  E= 2.631325D-01
              MO Center= -2.1D-01,  6.0D-01, -1.2D-03, r^2= 7.8D+00
   Bfn.  Coefficient  Atom+Function         Bfn.  Coefficient  Atom+Function  
  ----- ------------  ---------------      ----- ------------  ---------------
    44      3.043508  4 H  s                 40     -2.520546  3 H  s          
    41     -1.818516  3 H  s                 11     -1.807558  1 O  px         
    10      1.232416  1 O  s                 30      1.115507  2 O  px         
    31     -0.998405  2 O  py                12      0.944093  1 O  py         
    47     -0.590917  5 H  s                 50     -0.590490  6 H  s          
 
 Vector   25  Occ=0.000000D+00  E= 3.305579D-01
              MO Center=  3.2D-01,  7.1D-01,  1.4D-03, r^2= 6.6D+00
   Bfn.  Coefficient  Atom+Function         Bfn.  Coefficient  Atom+Function  
  ----- ------------  ---------------      ----- ------------  ---------------
    10      5.618223  1 O  s                 44     -3.985559  4 H  s          
    43     -2.463671  4 H  s                 29     -1.967271  2 O  s          
    12     -1.640668  1 O  py                40     -1.624275  3 H  s          
    41      1.214467  3 H  s                 46      1.200704  5 H  s          
    49      1.200895  6 H  s                 30     -0.991827  2 O  px         
 
 Vector   26  Occ=0.000000D+00  E= 3.847764D-01
              MO Center=  1.4D-01, -3.6D-01,  7.4D-04, r^2= 5.8D+00
   Bfn.  Coefficient  Atom+Function         Bfn.  Coefficient  Atom+Function  
  ----- ------------  ---------------      ----- ------------  ---------------
    29      6.351726  2 O  s                 43     -3.111751  4 H  s          
    46     -2.616625  5 H  s                 49     -2.616211  6 H  s          
    10      1.700215  1 O  s                 30      1.381745  2 O  px         
    31      1.232197  2 O  py                 6      1.159940  1 O  s          
    44     -1.035066  4 H  s                 40     -0.860798  3 H  s          
 
 Vector   27  Occ=0.000000D+00  E= 9.273901D-01
              MO Center=  3.7D-01, -1.5D+00,  2.1D-03, r^2= 2.1D+00
   Bfn.  Coefficient  Atom+Function         Bfn.  Coefficient  Atom+Function  
  ----- ------------  ---------------      ----- ------------  ---------------
    46      1.811772  5 H  s                 49     -1.811812  6 H  s          
    32      0.807827  2 O  pz                45     -0.782578  5 H  s          
    48      0.782551  6 H  s                 24     -0.551412  2 O  pz         
    28      0.391728  2 O  pz                35      0.376242  2 O  dxz        
    47     -0.190481  5 H  s                 50      0.190318  6 H  s          
 

 center of mass
 --------------
 x =  -0.00358466 y =   0.03562722 z =  -0.00006310

 moments of inertia (a.u.)
 ------------------
         278.121427665065          -0.000000000000           0.000000000000
          -0.000000000000           8.993148417841           0.000000000000
           0.000000000000           0.000000000000         278.665842026511
 
     Multipole analysis of the density
     ---------------------------------
 
     L   x y z        total         alpha         beta         nuclear
     -   - - -        -----         -----         ----         -------
     0   0 0 0     -0.000000    -10.000000    -10.000000     20.000000
 
     1   1 0 0      0.057548      0.028774      0.028774     -0.000000
     1   0 1 0     -0.837617     -0.418809     -0.418809      0.000000
     1   0 0 1      0.001079      0.000540      0.000540      0.000000
 
     2   2 0 0     -9.176657     -6.819510     -6.819510      4.462362
     2   1 1 0     -5.464283      0.092570      0.092570     -5.649423
     2   1 0 1     -0.001864     -0.000208     -0.000208     -0.001447
     2   0 2 0    -10.494881    -81.616604    -81.616604    152.738327
     2   0 1 1     -0.029004      0.000558      0.000558     -0.030120
     2   0 0 2     -9.171761     -6.681660     -6.681660      4.191560
 
 
 
                            NWChem DFT Gradient Module
                            --------------------------
 
 
                                 H4O2 dft optimize
 
 

  charge          =   0.00
  wavefunction    = closed shell



                         DFT ENERGY GRADIENTS

    atom               coordinates                        gradient
                 x          y          z           x          y          z
   1 O       0.122538   2.830082   0.000555    0.001265   0.000407   0.000011
   2 O      -0.138816  -2.668297  -0.000842   -0.003635  -0.002223  -0.000015
   3 H      -1.528813   3.614744  -0.007140    0.000442  -0.002970  -0.000002
   4 H      -0.235738   1.022696  -0.001592   -0.000896   0.003258  -0.000006
   5 H       0.955906  -2.965683  -1.442148    0.001404   0.000765   0.001394
   6 H       0.938871  -2.966041   1.453172    0.001421   0.000763  -0.001381
 
                 ----------------------------------------
                 |  Time  |  1-e(secs)   |  2-e(secs)   |
                 ----------------------------------------
                 |  CPU   |       0.00   |       0.05   |
                 ----------------------------------------
                 |  WALL  |       0.00   |       0.06   |
                 ----------------------------------------

@ Step       Energy      Delta E   Gmax     Grms     Xrms     Xmax   Walltime
@ ---- ---------------- -------- -------- -------- -------- -------- --------
@    0    -152.85517233  0.0D+00  0.00241  0.00119  0.00000  0.00000      2.8
                                                                    



                                Z-matrix (autoz)
                                -------- 

 Units are Angstrom for bonds and degrees for angles
 
      Type          Name      I     J     K     L     M      Value     Gradient
      ----------- --------  ----- ----- ----- ----- ----- ---------- ----------
    1 Stretch                  1     3                       0.96750   -0.00167
    2 Stretch                  1     4                       0.97504   -0.00218
    3 Stretch                  2     4                       1.95386    0.00067
    4 Stretch                  2     5                       0.97061   -0.00038
    5 Stretch                  2     6                       0.97061   -0.00038
    6 Bend                     1     4     2               167.28324    0.00029
    7 Bend                     3     1     4               104.20260   -0.00241
    8 Bend                     4     2     5               100.22926   -0.00091
    9 Bend                     4     2     6               100.24510   -0.00091
   10 Bend                     5     2     6               104.23685   -0.00113
   11 Torsion                  1     4     2     5         -53.34504    0.00081
   12 Torsion                  1     4     2     6          53.30755   -0.00081
   13 Torsion                  2     4     1     3        -179.91695   -0.00000
 
 
                                 NWChem DFT Module
                                 -----------------
 
 
                                 H4O2 dft optimize
 
 
  Caching 1-el integrals 
 
            General Information
            -------------------
          SCF calculation type: DFT
          Wavefunction type:  closed shell.
          No. of atoms     :     6
          No. of electrons :    20
           Alpha electrons :    10
            Beta electrons :    10
          Charge           :     0
          Spin multiplicity:     1
          Use of symmetry is: off; symmetry adaption is: off
          Maximum number of iterations: 300
          AO basis - number of functions:    50
                     number of shells:    28
          Convergence on energy requested: 1.00D-06
          Convergence on density requested: 1.00D-05
          Convergence on gradient requested: 5.00D-04
 
              XC Information
              --------------
                         B3LYP Method XC Potential
                     Hartree-Fock (Exact) Exchange  0.200          
                        Slater Exchange Functional  0.800 local    
                    Becke 1988 Exchange Functional  0.720 non-local
              Lee-Yang-Parr Correlation Functional  0.810          
                  VWN I RPA Correlation Functional  0.190 local    
 
             Grid Information
             ----------------
          Grid used for XC integration:  medium    
          Radial quadrature: Mura-Knowles        
          Angular quadrature: Lebedev. 
          Tag              B.-S. Rad. Rad. Pts. Rad. Cut. Ang. Pts.
          ---              ---------- --------- --------- ---------
          O                   0.60       49          13.0       434
          H                   0.35       45          14.0       434
          Grid pruning is: on 
          Number of quadrature shells:   278
          Spatial weights used:  Erf1
 
          Convergence Information
          -----------------------
          Convergence aids based upon iterative change in 
          total energy or number of iterations. 
          Levelshifting, if invoked, occurs when the 
          HOMO/LUMO gap drops below (HL_TOL): 1.00D-02
          DIIS, if invoked, will attempt to extrapolate 
          using up to (NFOCK): 10 stored Fock matrices.

                    Damping( 0%)  Levelshifting(0.5)       DIIS
                  --------------- ------------------- ---------------
          dE  on:    start            ASAP                start   
          dE off:    2 iters        300 iters           300 iters 

 
      Screening Tolerance Information
      -------------------------------
          Density screening/tol_rho: 1.00D-10
          AO Gaussian exp screening on grid/accAOfunc:  14
          CD Gaussian exp screening on grid/accCDfunc:  20
          XC Gaussian exp screening on grid/accXCfunc:  20
          Schwarz screening/accCoul: 1.00D-08


 Loading old vectors from job with title :

H4O2 dft optimize

   Time after variat. SCF:      3.4
   Time prior to 1st pass:      3.4

 Grid_pts file          = ./mol.gridpts.00
 Record size in doubles =  12289        No. of grid_pts per rec  =   3070
 Max. records in memory =      3        Max. recs in file   =  42218779


           Memory utilization after 1st SCF pass: 
           Heap Space remaining (MW):        6.78             6776295
          Stack Space remaining (MW):       13.11            13106773

   convergence    iter        energy       DeltaE   RMS-Dens  Diis-err    time
 ---------------- ----- ----------------- --------- --------- ---------  ------
 d= 0,ls=0.0,diis     1   -152.8552500319 -1.89D+02  5.85D-04  5.88D-04     3.5
 d= 0,ls=0.0,diis     2   -152.8553375344 -8.75D-05  1.62D-04  5.15D-05     3.6
 d= 0,ls=0.0,diis     3   -152.8553359036  1.63D-06  7.59D-05  7.75D-05     3.7
 d= 0,ls=0.0,diis     4   -152.8553428206 -6.92D-06  1.18D-05  7.82D-07     3.8
 d= 0,ls=0.0,diis     5   -152.8553428943 -7.36D-08  1.88D-06  7.07D-09     3.9


         Total DFT energy =     -152.855342894252
      One electron energy =     -282.126417093263
           Coulomb energy =      111.362053535943
    Exchange-Corr. energy =      -18.613796605439
 Nuclear repulsion energy =       36.522817268508

 Numeric. integr. density =       20.000008752467

     Total iterative time =      0.5s


 
                       DFT Final Molecular Orbital Analysis
                       ------------------------------------
 
 Vector    1  Occ=2.000000D+00  E=-1.919791D+01
              MO Center= -6.4D-02, -1.4D+00, -4.0D-04, r^2= 1.5D-02
   Bfn.  Coefficient  Atom+Function         Bfn.  Coefficient  Atom+Function  
  ----- ------------  ---------------      ----- ------------  ---------------
    20      0.992667  2 O  s          
 
 Vector    2  Occ=2.000000D+00  E=-1.914083D+01
              MO Center=  5.8D-02,  1.5D+00,  2.3D-04, r^2= 1.5D-02
   Bfn.  Coefficient  Atom+Function         Bfn.  Coefficient  Atom+Function  
  ----- ------------  ---------------      ----- ------------  ---------------
     1      0.992647  1 O  s          
 
 Vector    3  Occ=2.000000D+00  E=-1.049984D+00
              MO Center=  1.2D-01, -1.4D+00,  7.0D-04, r^2= 5.5D-01
   Bfn.  Coefficient  Atom+Function         Bfn.  Coefficient  Atom+Function  
  ----- ------------  ---------------      ----- ------------  ---------------
    21      0.472309  2 O  s                 25      0.451542  2 O  s          
    20     -0.210360  2 O  s          
 
 Vector    4  Occ=2.000000D+00  E=-9.931570D-01
              MO Center= -1.2D-01,  1.4D+00, -6.2D-04, r^2= 5.7D-01
   Bfn.  Coefficient  Atom+Function         Bfn.  Coefficient  Atom+Function  
  ----- ------------  ---------------      ----- ------------  ---------------
     2      0.469593  1 O  s                  6      0.466477  1 O  s          
     1     -0.210880  1 O  s          
 
 Vector    5  Occ=2.000000D+00  E=-5.681132D-01
              MO Center=  1.4D-01, -1.5D+00,  8.2D-04, r^2= 7.8D-01
   Bfn.  Coefficient  Atom+Function         Bfn.  Coefficient  Atom+Function  
  ----- ------------  ---------------      ----- ------------  ---------------
    24      0.526405  2 O  pz                28      0.279707  2 O  pz         
    45     -0.236006  5 H  s                 48      0.236010  6 H  s          
 
 Vector    6  Occ=2.000000D+00  E=-5.193262D-01
              MO Center= -1.3D-01,  1.3D+00, -7.0D-04, r^2= 1.0D+00
   Bfn.  Coefficient  Atom+Function         Bfn.  Coefficient  Atom+Function  
  ----- ------------  ---------------      ----- ------------  ---------------
     4      0.456862  1 O  py                 8      0.249327  1 O  py         
    39      0.233911  3 H  s                 42     -0.232781  4 H  s          
     3     -0.225084  1 O  px         
 
 Vector    7  Occ=2.000000D+00  E=-4.269232D-01
              MO Center= -1.3D-01, -1.2D+00, -8.1D-04, r^2= 1.1D+00
   Bfn.  Coefficient  Atom+Function         Bfn.  Coefficient  Atom+Function  
  ----- ------------  ---------------      ----- ------------  ---------------
    22      0.516139  2 O  px                26      0.320149  2 O  px         
    25     -0.296262  2 O  s                 23     -0.186063  2 O  py         
    21     -0.174114  2 O  s          
 
 Vector    8  Occ=2.000000D+00  E=-3.740515D-01
              MO Center=  8.1D-02,  9.0D-01,  3.2D-04, r^2= 2.3D+00
   Bfn.  Coefficient  Atom+Function         Bfn.  Coefficient  Atom+Function  
  ----- ------------  ---------------      ----- ------------  ---------------
     3      0.452752  1 O  px                 6      0.278374  1 O  s          
     7      0.273952  1 O  px                23     -0.219677  2 O  py         
     4      0.188796  1 O  py                22     -0.180698  2 O  px         
     2      0.170053  1 O  s                 27     -0.154464  2 O  py         
 
 Vector    9  Occ=2.000000D+00  E=-3.440510D-01
              MO Center= -4.7D-04, -8.0D-01, -5.9D-05, r^2= 2.2D+00
   Bfn.  Coefficient  Atom+Function         Bfn.  Coefficient  Atom+Function  
  ----- ------------  ---------------      ----- ------------  ---------------
    23      0.557033  2 O  py                27      0.380552  2 O  py         
     4      0.214887  1 O  py                 3      0.194029  1 O  px         
    22      0.156477  2 O  px         
 
 Vector   10  Occ=2.000000D+00  E=-2.954099D-01
              MO Center=  4.1D-02,  1.5D+00,  1.4D-04, r^2= 7.3D-01
   Bfn.  Coefficient  Atom+Function         Bfn.  Coefficient  Atom+Function  
  ----- ------------  ---------------      ----- ------------  ---------------
     5      0.639545  1 O  pz                 9      0.433964  1 O  pz         
 
 Vector   11  Occ=0.000000D+00  E=-3.561974D-02
              MO Center=  5.9D-01, -1.5D+00,  3.7D-03, r^2= 7.5D+00
   Bfn.  Coefficient  Atom+Function         Bfn.  Coefficient  Atom+Function  
  ----- ------------  ---------------      ----- ------------  ---------------
    29      0.662838  2 O  s                 47     -0.617387  5 H  s          
    50     -0.617481  6 H  s                 25      0.431805  2 O  s          
    46     -0.404958  5 H  s                 49     -0.404964  6 H  s          
    41     -0.310288  3 H  s                 44      0.189126  4 H  s          
    26      0.186825  2 O  px                 6      0.172497  1 O  s          
 
 Vector   12  Occ=0.000000D+00  E= 7.125349D-03
              MO Center= -9.9D-01,  1.7D+00, -4.6D-03, r^2= 9.4D+00
   Bfn.  Coefficient  Atom+Function         Bfn.  Coefficient  Atom+Function  
  ----- ------------  ---------------      ----- ------------  ---------------
    41      1.316065  3 H  s                 10     -0.724510  1 O  s          
    40      0.461698  3 H  s                 47     -0.366683  5 H  s          
    50     -0.366153  6 H  s                  6     -0.254671  1 O  s          
    29      0.239756  2 O  s                 11      0.175908  1 O  px         
     7      0.168357  1 O  px         
 
 Vector   13  Occ=0.000000D+00  E= 2.210186D-02
              MO Center=  7.2D-01, -1.7D+00,  4.1D-03, r^2= 1.0D+01
   Bfn.  Coefficient  Atom+Function         Bfn.  Coefficient  Atom+Function  
  ----- ------------  ---------------      ----- ------------  ---------------
    47      2.068993  5 H  s                 50     -2.069174  6 H  s          
    32      0.370969  2 O  pz                46      0.351767  5 H  s          
    49     -0.351806  6 H  s                 28      0.211986  2 O  pz         
    24      0.208403  2 O  pz         
 
 Vector   14  Occ=0.000000D+00  E= 6.889196D-02
              MO Center= -1.2D-01,  4.2D-01, -1.2D-03, r^2= 1.5D+01
   Bfn.  Coefficient  Atom+Function         Bfn.  Coefficient  Atom+Function  
  ----- ------------  ---------------      ----- ------------  ---------------
    44      5.102673  4 H  s                 41     -2.871228  3 H  s          
    47     -1.067480  5 H  s                 50     -1.065479  6 H  s          
    10     -0.835525  1 O  s                 12      0.452975  1 O  py         
    43      0.243419  4 H  s                 31     -0.202456  2 O  py         
    25     -0.161023  2 O  s          
 
 Vector   15  Occ=0.000000D+00  E= 1.234828D-01
              MO Center= -3.2D-01, -9.2D-01, -2.0D-03, r^2= 6.6D+00
   Bfn.  Coefficient  Atom+Function         Bfn.  Coefficient  Atom+Function  
  ----- ------------  ---------------      ----- ------------  ---------------
    29      1.378576  2 O  s                 30      1.252818  2 O  px         
    11      0.416060  1 O  px                46     -0.407860  5 H  s          
    49     -0.407841  6 H  s                 40      0.395031  3 H  s          
    31      0.342361  2 O  py                47     -0.338687  5 H  s          
    50     -0.338487  6 H  s                 26     -0.315096  2 O  px         
 
 Vector   16  Occ=0.000000D+00  E= 1.423995D-01
              MO Center=  7.6D-01, -5.6D-01,  4.3D-03, r^2= 9.3D+00
   Bfn.  Coefficient  Atom+Function         Bfn.  Coefficient  Atom+Function  
  ----- ------------  ---------------      ----- ------------  ---------------
    29      2.013241  2 O  s                 25     -1.211962  2 O  s          
    10      1.106225  1 O  s                 44     -0.989168  4 H  s          
    47     -0.625989  5 H  s                 50     -0.626503  6 H  s          
    11     -0.611162  1 O  px                43     -0.392286  4 H  s          
    12     -0.339664  1 O  py                46      0.288868  5 H  s          
 
 Vector   17  Occ=0.000000D+00  E= 1.676564D-01
              MO Center=  1.2D-01,  3.8D-02,  1.2D-03, r^2= 6.0D+00
   Bfn.  Coefficient  Atom+Function         Bfn.  Coefficient  Atom+Function  
  ----- ------------  ---------------      ----- ------------  ---------------
    46      1.227991  5 H  s                 49     -1.228271  6 H  s          
    13      0.808952  1 O  pz                32      0.630259  2 O  pz         
    28      0.483663  2 O  pz                 9     -0.334559  1 O  pz         
    24      0.226938  2 O  pz                 5     -0.204263  1 O  pz         
 
 Vector   18  Occ=0.000000D+00  E= 1.758048D-01
              MO Center= -3.5D-01,  9.7D-01, -2.0D-03, r^2= 9.9D+00
   Bfn.  Coefficient  Atom+Function         Bfn.  Coefficient  Atom+Function  
  ----- ------------  ---------------      ----- ------------  ---------------
    10      1.659913  1 O  s                 41     -1.044201  3 H  s          
     6     -0.834350  1 O  s                 25      0.737447  2 O  s          
    11     -0.701244  1 O  px                44     -0.685523  4 H  s          
    40      0.590154  3 H  s                 46     -0.582590  5 H  s          
    49     -0.578774  6 H  s                 47      0.573865  5 H  s          
 
 Vector   19  Occ=0.000000D+00  E= 1.875610D-01
              MO Center= -1.1D-01,  6.0D-01, -3.4D-04, r^2= 9.0D+00
   Bfn.  Coefficient  Atom+Function         Bfn.  Coefficient  Atom+Function  
  ----- ------------  ---------------      ----- ------------  ---------------
    29      1.449532  2 O  s                  6     -1.053863  1 O  s          
    43      1.058688  4 H  s                 12      0.862176  1 O  py         
    10      0.824946  1 O  s                 41     -0.822653  3 H  s          
    31     -0.614909  2 O  py                46     -0.572805  5 H  s          
    49     -0.573350  6 H  s                 11      0.421538  1 O  px         
 
 Vector   20  Occ=0.000000D+00  E= 1.912143D-01
              MO Center=  4.5D-01, -7.8D-01,  2.8D-03, r^2= 9.1D+00
   Bfn.  Coefficient  Atom+Function         Bfn.  Coefficient  Atom+Function  
  ----- ------------  ---------------      ----- ------------  ---------------
    47      1.928265  5 H  s                 50     -1.928373  6 H  s          
    46     -0.825816  5 H  s                 49      0.826944  6 H  s          
    13      0.804114  1 O  pz                28     -0.593708  2 O  pz         
    32      0.572868  2 O  pz                24     -0.315354  2 O  pz         
     9     -0.286657  1 O  pz                 5     -0.165343  1 O  pz         
 
 Vector   21  Occ=0.000000D+00  E= 2.113188D-01
              MO Center= -3.9D-01, -7.7D-01, -2.7D-03, r^2= 7.7D+00
   Bfn.  Coefficient  Atom+Function         Bfn.  Coefficient  Atom+Function  
  ----- ------------  ---------------      ----- ------------  ---------------
    32      2.323449  2 O  pz                47      1.445317  5 H  s          
    50     -1.445502  6 H  s                 46      1.156241  5 H  s          
    49     -1.156929  6 H  s                 13     -0.617067  1 O  pz         
     9      0.193231  1 O  pz         
 
 Vector   22  Occ=0.000000D+00  E= 2.232364D-01
              MO Center=  5.1D-02, -5.3D-01,  1.2D-04, r^2= 9.1D+00
   Bfn.  Coefficient  Atom+Function         Bfn.  Coefficient  Atom+Function  
  ----- ------------  ---------------      ----- ------------  ---------------
    44      2.682965  4 H  s                 31     -1.732358  2 O  py         
    40      0.990509  3 H  s                 47     -0.969719  5 H  s          
    50     -0.969100  6 H  s                 12     -0.885300  1 O  py         
    10     -0.849602  1 O  s                 29      0.820317  2 O  s          
    41     -0.713149  3 H  s                 30      0.668324  2 O  px         
 
 Vector   23  Occ=0.000000D+00  E= 2.418230D-01
              MO Center= -7.9D-02,  8.4D-01, -2.7D-04, r^2= 7.1D+00
   Bfn.  Coefficient  Atom+Function         Bfn.  Coefficient  Atom+Function  
  ----- ------------  ---------------      ----- ------------  ---------------
    44      2.372099  4 H  s                 41     -1.935707  3 H  s          
    29     -1.733213  2 O  s                 12      1.401037  1 O  py         
    46      1.085386  5 H  s                 49      1.085310  6 H  s          
    10     -0.546694  1 O  s                 30     -0.528264  2 O  px         
     8     -0.515399  1 O  py                40      0.462525  3 H  s          
 
 Vector   24  Occ=0.000000D+00  E= 2.630382D-01
              MO Center= -2.1D-01,  6.7D-01, -1.1D-03, r^2= 7.7D+00
   Bfn.  Coefficient  Atom+Function         Bfn.  Coefficient  Atom+Function  
  ----- ------------  ---------------      ----- ------------  ---------------
    44      2.913213  4 H  s                 40     -2.535304  3 H  s          
    11     -1.795366  1 O  px                41     -1.798107  3 H  s          
    10      1.304880  1 O  s                 30      1.084550  2 O  px         
    12      1.029896  1 O  py                31     -0.948154  2 O  py         
    43      0.584256  4 H  s                 47     -0.556492  5 H  s          
 
 Vector   25  Occ=0.000000D+00  E= 3.283520D-01
              MO Center=  3.3D-01,  6.8D-01,  1.4D-03, r^2= 6.6D+00
   Bfn.  Coefficient  Atom+Function         Bfn.  Coefficient  Atom+Function  
  ----- ------------  ---------------      ----- ------------  ---------------
    10      5.504878  1 O  s                 44     -3.952526  4 H  s          
    43     -2.374319  4 H  s                 29     -2.064708  2 O  s          
    12     -1.659159  1 O  py                40     -1.512357  3 H  s          
    46      1.237450  5 H  s                 49      1.237616  6 H  s          
    41      1.215313  3 H  s                 30     -1.005581  2 O  px         
 
 Vector   26  Occ=0.000000D+00  E= 3.805386D-01
              MO Center=  1.3D-01, -3.1D-01,  6.3D-04, r^2= 5.8D+00
   Bfn.  Coefficient  Atom+Function         Bfn.  Coefficient  Atom+Function  
  ----- ------------  ---------------      ----- ------------  ---------------
    29      6.186903  2 O  s                 43     -3.139191  4 H  s          
    46     -2.509689  5 H  s                 49     -2.509247  6 H  s          
    10      1.879210  1 O  s                 30      1.283647  2 O  px         
    31      1.221660  2 O  py                44     -1.158818  4 H  s          
     6      1.136638  1 O  s                 40     -0.941218  3 H  s          
 
 Vector   27  Occ=0.000000D+00  E= 9.305025D-01
              MO Center=  3.7D-01, -1.5D+00,  2.2D-03, r^2= 2.1D+00
   Bfn.  Coefficient  Atom+Function         Bfn.  Coefficient  Atom+Function  
  ----- ------------  ---------------      ----- ------------  ---------------
    46      1.812311  5 H  s                 49     -1.812428  6 H  s          
    32      0.806871  2 O  pz                45     -0.778921  5 H  s          
    48      0.778919  6 H  s                 24     -0.561391  2 O  pz         
    28      0.410817  2 O  pz                35      0.373476  2 O  dxz        
    47     -0.193842  5 H  s                 50      0.193685  6 H  s          
 

 center of mass
 --------------
 x =  -0.00121082 y =   0.03610966 z =  -0.00008019

 moments of inertia (a.u.)
 ------------------
         278.047151919434           1.421811619811           0.001310930453
           1.421811619811           8.934064733221           0.008643454593
           0.001310930453           0.008643454593         278.405102408076
 
     Multipole analysis of the density
     ---------------------------------
 
     L   x y z        total         alpha         beta         nuclear
     -   - - -        -----         -----         ----         -------
     0   0 0 0     -0.000000    -10.000000    -10.000000     20.000000
 
     1   1 0 0      0.051362      0.005712      0.005712      0.039938
     1   0 1 0     -0.844786     -0.426451     -0.426451      0.008117
     1   0 0 1      0.001131      0.000709      0.000709     -0.000287
 
     2   2 0 0     -9.205926     -6.802664     -6.802664      4.399401
     2   1 1 0     -5.455994      0.471951      0.471951     -6.399897
     2   1 0 1     -0.002344      0.000031      0.000031     -0.002406
     2   0 2 0    -10.301709    -81.590779    -81.590779    152.879848
     2   0 1 1     -0.028696      0.002900      0.002900     -0.034495
     2   0 0 2     -9.142849     -6.698803     -6.698803      4.254758
 
 Line search: 
     step= 1.00 grad=-2.8D-04 hess= 1.1D-04 energy=   -152.855343 mode=downhill
 new step= 1.29                   predicted energy=   -152.855352

          --------
          Step   1
          --------
 
 
                         Geometry "geometry" -> "geometry"
                         ---------------------------------
 
 Output coordinates in angstroms (scale by  1.889725989 to convert to a.u.)
 
  No.       Tag          Charge          X              Y              Z
 ---- ---------------- ---------- -------------- -------------- --------------
    1 O                    8.0000     0.05642306     1.49581057     0.00021385
    2 O                    8.0000    -0.06115684    -1.40939173    -0.00039347
    3 H                    1.0000    -0.80752600     1.93838363    -0.00371012
    4 H                    1.0000    -0.13007717     0.53443501    -0.00089544
    5 H                    1.0000     0.50589586    -1.57919439    -0.77054207
    6 H                    1.0000     0.49673932    -1.57933535     0.77638874
 
      Atomic Mass 
      ----------- 
 
      O                 15.994910
      H                  1.007825
 

 Effective nuclear repulsion energy (a.u.)      36.5140785449

            Nuclear Dipole moment (a.u.) 
            ----------------------------
        X                 Y               Z
 ---------------- ---------------- ----------------
     0.0513282648     0.0106573351    -0.0003701194
 
 
                                 NWChem DFT Module
                                 -----------------
 
 
                                 H4O2 dft optimize
 
 
  Caching 1-el integrals 
 
            General Information
            -------------------
          SCF calculation type: DFT
          Wavefunction type:  closed shell.
          No. of atoms     :     6
          No. of electrons :    20
           Alpha electrons :    10
            Beta electrons :    10
          Charge           :     0
          Spin multiplicity:     1
          Use of symmetry is: off; symmetry adaption is: off
          Maximum number of iterations: 300
          AO basis - number of functions:    50
                     number of shells:    28
          Convergence on energy requested: 1.00D-06
          Convergence on density requested: 1.00D-05
          Convergence on gradient requested: 5.00D-04
 
              XC Information
              --------------
                         B3LYP Method XC Potential
                     Hartree-Fock (Exact) Exchange  0.200          
                        Slater Exchange Functional  0.800 local    
                    Becke 1988 Exchange Functional  0.720 non-local
              Lee-Yang-Parr Correlation Functional  0.810          
                  VWN I RPA Correlation Functional  0.190 local    
 
             Grid Information
             ----------------
          Grid used for XC integration:  medium    
          Radial quadrature: Mura-Knowles        
          Angular quadrature: Lebedev. 
          Tag              B.-S. Rad. Rad. Pts. Rad. Cut. Ang. Pts.
          ---              ---------- --------- --------- ---------
          O                   0.60       49          13.0       434
          H                   0.35       45          14.0       434
          Grid pruning is: on 
          Number of quadrature shells:   278
          Spatial weights used:  Erf1
 
          Convergence Information
          -----------------------
          Convergence aids based upon iterative change in 
          total energy or number of iterations. 
          Levelshifting, if invoked, occurs when the 
          HOMO/LUMO gap drops below (HL_TOL): 1.00D-02
          DIIS, if invoked, will attempt to extrapolate 
          using up to (NFOCK): 10 stored Fock matrices.

                    Damping( 0%)  Levelshifting(0.5)       DIIS
                  --------------- ------------------- ---------------
          dE  on:    start            ASAP                start   
          dE off:    2 iters        300 iters           300 iters 

 
      Screening Tolerance Information
      -------------------------------
          Density screening/tol_rho: 1.00D-10
          AO Gaussian exp screening on grid/accAOfunc:  14
          CD Gaussian exp screening on grid/accCDfunc:  20
          XC Gaussian exp screening on grid/accXCfunc:  20
          Schwarz screening/accCoul: 1.00D-08


 Loading old vectors from job with title :

H4O2 dft optimize

   Time after variat. SCF:      4.0
   Time prior to 1st pass:      4.0

 Grid_pts file          = ./mol.gridpts.00
 Record size in doubles =  12289        No. of grid_pts per rec  =   3070
 Max. records in memory =      3        Max. recs in file   =  42218779


           Memory utilization after 1st SCF pass: 
           Heap Space remaining (MW):        6.78             6776295
          Stack Space remaining (MW):       13.11            13106773

   convergence    iter        energy       DeltaE   RMS-Dens  Diis-err    time
 ---------------- ----- ----------------- --------- --------- ---------  ------
 d= 0,ls=0.0,diis     1   -152.8553448320 -1.89D+02  1.68D-04  4.94D-05     4.1
 d= 0,ls=0.0,diis     2   -152.8553521864 -7.35D-06  4.69D-05  4.35D-06     4.2
 d= 0,ls=0.0,diis     3   -152.8553520509  1.35D-07  2.20D-05  6.52D-06     4.3
 d= 0,ls=0.0,diis     4   -152.8553526329 -5.82D-07  3.41D-06  6.56D-08     4.4


         Total DFT energy =     -152.855352632931
      One electron energy =     -282.114579432338
           Coulomb energy =      111.357917052892
    Exchange-Corr. energy =      -18.612768798393
 Nuclear repulsion energy =       36.514078544908

 Numeric. integr. density =       20.000008899706

     Total iterative time =      0.4s


 
                       DFT Final Molecular Orbital Analysis
                       ------------------------------------
 
 Vector    1  Occ=2.000000D+00  E=-1.919784D+01
              MO Center= -6.1D-02, -1.4D+00, -3.9D-04, r^2= 1.5D-02
   Bfn.  Coefficient  Atom+Function         Bfn.  Coefficient  Atom+Function  
  ----- ------------  ---------------      ----- ------------  ---------------
    20      0.992667  2 O  s          
 
 Vector    2  Occ=2.000000D+00  E=-1.914062D+01
              MO Center=  5.6D-02,  1.5D+00,  2.1D-04, r^2= 1.5D-02
   Bfn.  Coefficient  Atom+Function         Bfn.  Coefficient  Atom+Function  
  ----- ------------  ---------------      ----- ------------  ---------------
     1      0.992648  1 O  s          
 
 Vector    3  Occ=2.000000D+00  E=-1.049717D+00
              MO Center=  1.3D-01, -1.4D+00,  7.0D-04, r^2= 5.5D-01
   Bfn.  Coefficient  Atom+Function         Bfn.  Coefficient  Atom+Function  
  ----- ------------  ---------------      ----- ------------  ---------------
    21      0.472465  2 O  s                 25      0.451717  2 O  s          
    20     -0.210426  2 O  s          
 
 Vector    4  Occ=2.000000D+00  E=-9.923277D-01
              MO Center= -1.2D-01,  1.4D+00, -6.3D-04, r^2= 5.7D-01
   Bfn.  Coefficient  Atom+Function         Bfn.  Coefficient  Atom+Function  
  ----- ------------  ---------------      ----- ------------  ---------------
     2      0.469781  1 O  s                  6      0.467056  1 O  s          
     1     -0.210984  1 O  s          
 
 Vector    5  Occ=2.000000D+00  E=-5.685866D-01
              MO Center=  1.4D-01, -1.5D+00,  8.3D-04, r^2= 7.8D-01
   Bfn.  Coefficient  Atom+Function         Bfn.  Coefficient  Atom+Function  
  ----- ------------  ---------------      ----- ------------  ---------------
    24      0.526250  2 O  pz                28      0.279536  2 O  pz         
    45     -0.236127  5 H  s                 48      0.236130  6 H  s          
 
 Vector    6  Occ=2.000000D+00  E=-5.196088D-01
              MO Center= -1.3D-01,  1.3D+00, -7.1D-04, r^2= 1.0D+00
   Bfn.  Coefficient  Atom+Function         Bfn.  Coefficient  Atom+Function  
  ----- ------------  ---------------      ----- ------------  ---------------
     4      0.457129  1 O  py                 8      0.249444  1 O  py         
    39      0.234004  3 H  s                 42     -0.232897  4 H  s          
     3     -0.223602  1 O  px         
 
 Vector    7  Occ=2.000000D+00  E=-4.264362D-01
              MO Center= -1.3D-01, -1.2D+00, -8.0D-04, r^2= 1.1D+00
   Bfn.  Coefficient  Atom+Function         Bfn.  Coefficient  Atom+Function  
  ----- ------------  ---------------      ----- ------------  ---------------
    22      0.515264  2 O  px                26      0.319766  2 O  px         
    25     -0.295507  2 O  s                 23     -0.189284  2 O  py         
    21     -0.173535  2 O  s          
 
 Vector    8  Occ=2.000000D+00  E=-3.731251D-01
              MO Center=  7.8D-02,  8.7D-01,  3.0D-04, r^2= 2.3D+00
   Bfn.  Coefficient  Atom+Function         Bfn.  Coefficient  Atom+Function  
  ----- ------------  ---------------      ----- ------------  ---------------
     3      0.451347  1 O  px                 6      0.275775  1 O  s          
     7      0.273417  1 O  px                23     -0.225075  2 O  py         
     4      0.185472  1 O  py                22     -0.184011  2 O  px         
     2      0.168859  1 O  s                 27     -0.158231  2 O  py         
 
 Vector    9  Occ=2.000000D+00  E=-3.438731D-01
              MO Center=  3.2D-03, -7.7D-01, -4.5D-05, r^2= 2.2D+00
   Bfn.  Coefficient  Atom+Function         Bfn.  Coefficient  Atom+Function  
  ----- ------------  ---------------      ----- ------------  ---------------
    23      0.553419  2 O  py                27      0.378047  2 O  py         
     4      0.216406  1 O  py                 3      0.200002  1 O  px         
    22      0.157786  2 O  px         
 
 Vector   10  Occ=2.000000D+00  E=-2.950972D-01
              MO Center=  3.9D-02,  1.5D+00,  1.3D-04, r^2= 7.3D-01
   Bfn.  Coefficient  Atom+Function         Bfn.  Coefficient  Atom+Function  
  ----- ------------  ---------------      ----- ------------  ---------------
     5      0.639496  1 O  pz                 9      0.433914  1 O  pz         
 
 Vector   11  Occ=0.000000D+00  E=-3.559588D-02
              MO Center=  5.9D-01, -1.5D+00,  3.7D-03, r^2= 7.5D+00
   Bfn.  Coefficient  Atom+Function         Bfn.  Coefficient  Atom+Function  
  ----- ------------  ---------------      ----- ------------  ---------------
    29      0.663113  2 O  s                 47     -0.617760  5 H  s          
    50     -0.617861  6 H  s                 25      0.432266  2 O  s          
    46     -0.405320  5 H  s                 49     -0.405327  6 H  s          
    41     -0.309777  3 H  s                 44      0.189637  4 H  s          
    26      0.186123  2 O  px                 6      0.172347  1 O  s          
 
 Vector   12  Occ=0.000000D+00  E= 7.110641D-03
              MO Center= -9.9D-01,  1.7D+00, -4.6D-03, r^2= 9.4D+00
   Bfn.  Coefficient  Atom+Function         Bfn.  Coefficient  Atom+Function  
  ----- ------------  ---------------      ----- ------------  ---------------
    41      1.315155  3 H  s                 10     -0.724590  1 O  s          
    40      0.462014  3 H  s                 47     -0.365504  5 H  s          
    50     -0.364953  6 H  s                  6     -0.254815  1 O  s          
    29      0.239198  2 O  s                 11      0.175484  1 O  px         
     7      0.168150  1 O  px         
 
 Vector   13  Occ=0.000000D+00  E= 2.206926D-02
              MO Center=  7.2D-01, -1.7D+00,  4.1D-03, r^2= 1.0D+01
   Bfn.  Coefficient  Atom+Function         Bfn.  Coefficient  Atom+Function  
  ----- ------------  ---------------      ----- ------------  ---------------
    47      2.064997  5 H  s                 50     -2.065183  6 H  s          
    32      0.371402  2 O  pz                46      0.351985  5 H  s          
    49     -0.352026  6 H  s                 28      0.212249  2 O  pz         
    24      0.208395  2 O  pz         
 
 Vector   14  Occ=0.000000D+00  E= 6.891136D-02
              MO Center= -1.2D-01,  4.2D-01, -1.2D-03, r^2= 1.5D+01
   Bfn.  Coefficient  Atom+Function         Bfn.  Coefficient  Atom+Function  
  ----- ------------  ---------------      ----- ------------  ---------------
    44      5.084969  4 H  s                 41     -2.856446  3 H  s          
    47     -1.064945  5 H  s                 50     -1.062958  6 H  s          
    10     -0.833644  1 O  s                 12      0.453365  1 O  py         
    43      0.243220  4 H  s                 31     -0.202482  2 O  py         
    25     -0.161994  2 O  s          
 
 Vector   15  Occ=0.000000D+00  E= 1.235824D-01
              MO Center= -3.1D-01, -9.2D-01, -2.0D-03, r^2= 6.6D+00
   Bfn.  Coefficient  Atom+Function         Bfn.  Coefficient  Atom+Function  
  ----- ------------  ---------------      ----- ------------  ---------------
    29      1.368148  2 O  s                 30      1.247495  2 O  px         
    11      0.415080  1 O  px                46     -0.402847  5 H  s          
    49     -0.402813  6 H  s                 40      0.395887  3 H  s          
    31      0.340099  2 O  py                47     -0.339899  5 H  s          
    50     -0.339686  6 H  s                 26     -0.316083  2 O  px         
 
 Vector   16  Occ=0.000000D+00  E= 1.424609D-01
              MO Center=  7.6D-01, -5.7D-01,  4.3D-03, r^2= 9.3D+00
   Bfn.  Coefficient  Atom+Function         Bfn.  Coefficient  Atom+Function  
  ----- ------------  ---------------      ----- ------------  ---------------
    29      2.006991  2 O  s                 25     -1.215147  2 O  s          
    10      1.097125  1 O  s                 44     -0.985973  4 H  s          
    47     -0.627452  5 H  s                 50     -0.627984  6 H  s          
    11     -0.606217  1 O  px                43     -0.384191  4 H  s          
    12     -0.334852  1 O  py                46      0.294982  5 H  s          
 
 Vector   17  Occ=0.000000D+00  E= 1.677184D-01
              MO Center=  1.2D-01,  4.9D-02,  1.2D-03, r^2= 6.0D+00
   Bfn.  Coefficient  Atom+Function         Bfn.  Coefficient  Atom+Function  
  ----- ------------  ---------------      ----- ------------  ---------------
    46      1.222703  5 H  s                 49     -1.223006  6 H  s          
    13      0.812574  1 O  pz                32      0.628184  2 O  pz         
    28      0.482457  2 O  pz                 9     -0.336057  1 O  pz         
    24      0.225937  2 O  pz                 5     -0.205179  1 O  pz         
 
 Vector   18  Occ=0.000000D+00  E= 1.757871D-01
              MO Center= -3.6D-01,  9.9D-01, -2.0D-03, r^2= 9.8D+00
   Bfn.  Coefficient  Atom+Function         Bfn.  Coefficient  Atom+Function  
  ----- ------------  ---------------      ----- ------------  ---------------
    10      1.664570  1 O  s                 41     -1.056821  3 H  s          
     6     -0.848217  1 O  s                 25      0.731516  2 O  s          
    11     -0.697513  1 O  px                44     -0.679359  4 H  s          
    40      0.592029  3 H  s                 46     -0.591195  5 H  s          
    49     -0.587343  6 H  s                 47      0.567770  5 H  s          
 
 Vector   19  Occ=0.000000D+00  E= 1.874899D-01
              MO Center= -9.9D-02,  5.9D-01, -3.2D-04, r^2= 9.0D+00
   Bfn.  Coefficient  Atom+Function         Bfn.  Coefficient  Atom+Function  
  ----- ------------  ---------------      ----- ------------  ---------------
    29      1.451727  2 O  s                 43      1.065626  4 H  s          
     6     -1.040087  1 O  s                 12      0.864520  1 O  py         
    41     -0.807429  3 H  s                 10      0.789370  1 O  s          
    31     -0.620955  2 O  py                46     -0.566614  5 H  s          
    49     -0.567309  6 H  s                 11      0.438471  1 O  px         
 
 Vector   20  Occ=0.000000D+00  E= 1.913462D-01
              MO Center=  4.5D-01, -8.1D-01,  2.8D-03, r^2= 9.1D+00
   Bfn.  Coefficient  Atom+Function         Bfn.  Coefficient  Atom+Function  
  ----- ------------  ---------------      ----- ------------  ---------------
    47      1.941757  5 H  s                 50     -1.941860  6 H  s          
    46     -0.815831  5 H  s                 49      0.816905  6 H  s          
    13      0.793056  1 O  pz                28     -0.596669  2 O  pz         
    32      0.598958  2 O  pz                24     -0.317271  2 O  pz         
     9     -0.283021  1 O  pz                 5     -0.163621  1 O  pz         
 
 Vector   21  Occ=0.000000D+00  E= 2.115281D-01
              MO Center= -4.0D-01, -7.5D-01, -2.8D-03, r^2= 7.7D+00
   Bfn.  Coefficient  Atom+Function         Bfn.  Coefficient  Atom+Function  
  ----- ------------  ---------------      ----- ------------  ---------------
    32      2.323075  2 O  pz                47      1.419927  5 H  s          
    50     -1.420102  6 H  s                 46      1.174303  5 H  s          
    49     -1.175023  6 H  s                 13     -0.627082  1 O  pz         
     9      0.196378  1 O  pz         
 
 Vector   22  Occ=0.000000D+00  E= 2.231992D-01
              MO Center=  5.4D-02, -5.5D-01,  1.3D-04, r^2= 9.1D+00
   Bfn.  Coefficient  Atom+Function         Bfn.  Coefficient  Atom+Function  
  ----- ------------  ---------------      ----- ------------  ---------------
    44      2.679193  4 H  s                 31     -1.742324  2 O  py         
    40      0.972454  3 H  s                 47     -0.972541  5 H  s          
    50     -0.972005  6 H  s                 12     -0.893454  1 O  py         
    10     -0.842970  1 O  s                 29      0.847030  2 O  s          
    41     -0.703120  3 H  s                 30      0.684944  2 O  px         
 
 Vector   23  Occ=0.000000D+00  E= 2.416688D-01
              MO Center= -8.5D-02,  8.4D-01, -3.0D-04, r^2= 7.0D+00
   Bfn.  Coefficient  Atom+Function         Bfn.  Coefficient  Atom+Function  
  ----- ------------  ---------------      ----- ------------  ---------------
    44      2.375235  4 H  s                 41     -1.924989  3 H  s          
    29     -1.740481  2 O  s                 12      1.384218  1 O  py         
    46      1.085729  5 H  s                 49      1.085637  6 H  s          
    10     -0.562608  1 O  s                 30     -0.528054  2 O  px         
     8     -0.518196  1 O  py                40      0.488146  3 H  s          
 
 Vector   24  Occ=0.000000D+00  E= 2.630160D-01
              MO Center= -2.1D-01,  6.9D-01, -1.1D-03, r^2= 7.7D+00
   Bfn.  Coefficient  Atom+Function         Bfn.  Coefficient  Atom+Function  
  ----- ------------  ---------------      ----- ------------  ---------------
    44      2.872709  4 H  s                 40     -2.539645  3 H  s          
    11     -1.791146  1 O  px                41     -1.790937  3 H  s          
    10      1.327040  1 O  s                 30      1.074928  2 O  px         
    12      1.053905  1 O  py                31     -0.932957  2 O  py         
    43      0.590951  4 H  s                 47     -0.546019  5 H  s          
 
 Vector   25  Occ=0.000000D+00  E= 3.277014D-01
              MO Center=  3.3D-01,  6.7D-01,  1.4D-03, r^2= 6.7D+00
   Bfn.  Coefficient  Atom+Function         Bfn.  Coefficient  Atom+Function  
  ----- ------------  ---------------      ----- ------------  ---------------
    10      5.470889  1 O  s                 44     -3.942115  4 H  s          
    43     -2.349211  4 H  s                 29     -2.090373  2 O  s          
    12     -1.665071  1 O  py                40     -1.478840  3 H  s          
    46      1.246600  5 H  s                 49      1.246759  6 H  s          
    41      1.215315  3 H  s                 30     -1.008744  2 O  px         
 
 Vector   26  Occ=0.000000D+00  E= 3.793455D-01
              MO Center=  1.3D-01, -3.0D-01,  5.9D-04, r^2= 5.8D+00
   Bfn.  Coefficient  Atom+Function         Bfn.  Coefficient  Atom+Function  
  ----- ------------  ---------------      ----- ------------  ---------------
    29      6.139740  2 O  s                 43     -3.145714  4 H  s          
    46     -2.478814  5 H  s                 49     -2.478364  6 H  s          
    10      1.928230  1 O  s                 30      1.255499  2 O  px         
    31      1.219162  2 O  py                44     -1.194271  4 H  s          
     6      1.129266  1 O  s                 40     -0.962429  3 H  s          
 
 Vector   27  Occ=0.000000D+00  E= 9.314029D-01
              MO Center=  3.7D-01, -1.5D+00,  2.2D-03, r^2= 2.1D+00
   Bfn.  Coefficient  Atom+Function         Bfn.  Coefficient  Atom+Function  
  ----- ------------  ---------------      ----- ------------  ---------------
    46      1.812508  5 H  s                 49     -1.812652  6 H  s          
    32      0.806570  2 O  pz                45     -0.777837  5 H  s          
    48      0.777845  6 H  s                 24     -0.564292  2 O  pz         
    28      0.416423  2 O  pz                35      0.372587  2 O  dxz        
    47     -0.194826  5 H  s                 50      0.194671  6 H  s          
 

 center of mass
 --------------
 x =  -0.00053382 y =   0.03626067 z =  -0.00008510

 moments of inertia (a.u.)
 ------------------
         278.022559938310           1.837741962460           0.001676408573
           1.837741962460           8.918747171677           0.011171618550
           0.001676408573           0.011171618550         278.328649260861
 
     Multipole analysis of the density
     ---------------------------------
 
     L   x y z        total         alpha         beta         nuclear
     -   - - -        -----         -----         ----         -------
     0   0 0 0     -0.000000    -10.000000    -10.000000     20.000000
 
     1   1 0 0      0.049599     -0.000865     -0.000865      0.051328
[...]
    49     -3.049180  3 H  s                 56     -2.818273  4 H  s          
    57     -2.126745  4 H  s                 38      1.848294  2 O  px         
    50      1.557413  3 H  s                 16     -1.502907  1 O  py         
 
 Vector   24  Occ=0.000000D+00  E= 2.457382D-01
              MO Center= -1.6D-01, -4.7D-02, -8.6D-04, r^2= 9.2D+00
   Bfn.  Coefficient  Atom+Function         Bfn.  Coefficient  Atom+Function  
  ----- ------------  ---------------      ----- ------------  ---------------
    57      3.777728  4 H  s                 49     -2.537594  3 H  s          
    14      2.220084  1 O  s                 15     -2.098548  1 O  px         
    50     -2.005752  3 H  s                 39     -1.900928  2 O  py         
    38      1.196769  2 O  px                63     -0.871159  5 H  s          
    70     -0.873250  6 H  s                 64     -0.802426  5 H  s          
 
 Vector   25  Occ=0.000000D+00  E= 2.915666D-01
              MO Center=  6.2D-01,  8.5D-01,  3.4D-03, r^2= 7.3D+00
   Bfn.  Coefficient  Atom+Function         Bfn.  Coefficient  Atom+Function  
  ----- ------------  ---------------      ----- ------------  ---------------
    14      9.184328  1 O  s                 56     -6.261684  4 H  s          
    57     -4.545644  4 H  s                 37     -3.064236  2 O  s          
    16     -3.026134  1 O  py                63      2.315886  5 H  s          
    70      2.316426  6 H  s                 50      1.767900  3 H  s          
    49     -1.712036  3 H  s                 38     -1.658443  2 O  px         
 
 Vector   26  Occ=0.000000D+00  E= 3.234613D-01
              MO Center=  1.2D-01, -3.5D-01,  6.4D-04, r^2= 6.3D+00
   Bfn.  Coefficient  Atom+Function         Bfn.  Coefficient  Atom+Function  
  ----- ------------  ---------------      ----- ------------  ---------------
    37     10.210839  2 O  s                 56     -8.195921  4 H  s          
    14      7.572040  1 O  s                 63     -3.807522  5 H  s          
    70     -3.806610  6 H  s                 49     -2.108959  3 H  s          
    57     -1.984201  4 H  s                 38      1.724866  2 O  px         
    15     -1.580807  1 O  px                39      1.361588  2 O  py         
 
 Vector   27  Occ=0.000000D+00  E= 5.077169D-01
              MO Center=  3.6D-01, -1.6D+00,  2.4D-03, r^2= 4.0D+00
   Bfn.  Coefficient  Atom+Function         Bfn.  Coefficient  Atom+Function  
  ----- ------------  ---------------      ----- ------------  ---------------
    63      3.662433  5 H  s                 70     -3.664067  6 H  s          
    40      1.856275  2 O  pz                62     -1.587511  5 H  s          
    69      1.588351  6 H  s                 36     -0.936763  2 O  pz         
    64     -0.882247  5 H  s                 71      0.882482  6 H  s          
    32     -0.226049  2 O  pz         
 

   alpha - beta orbital overlaps 
   ----------------------------- 


   alpha      1      2      3      4      5      6      7      8      9     10
    beta      1      2      3      4      5      6      7      8      9     10
 overlap   1.000  1.000  1.000  1.000  1.000  1.000  1.000  1.000  1.000  1.000


   alpha     11     12     13     14     15     16     17     18     19     20
    beta     11     12     13     14     15     16     17     18     19     20
 overlap   1.000  1.000  1.000  1.000  1.000  1.000  1.000  1.000  1.000  1.000


   alpha     21     22     23     24     25     26     27     28     29     30
    beta     21     22     23     24     25     26     27     28     29     30
 overlap   1.000  1.000  1.000  1.000  1.000  1.000  1.000  1.000  1.000  1.000


   alpha     31     32     33     34     35     36     37     38     39     40
    beta     31     32     33     34     35     36     37     38     39     40
 overlap   1.000  1.000  1.000  1.000  1.000  1.000  1.000  1.000  1.000  1.000


   alpha     41     42     43     44     45     46     47     48     49     50
    beta     41     42     43     44     45     46     47     48     49     50
 overlap   1.000  1.000  1.000  1.000  1.000  1.000  1.000  1.000  1.000  1.000


   alpha     51     52     53     54     55     56     57     58     59     60
    beta     51     52     53     54     55     56     57     58     59     60
 overlap   1.000  1.000  1.000  1.000  1.000  1.000  1.000  1.000  1.000  1.000


   alpha     61     62     63     64     65     66     67     68     69     70
    beta     61     62     63     64     65     66     67     68     69     70
 overlap   1.000  1.000  1.000  1.000  1.000  1.000  1.000  1.000  1.000  1.000


   alpha     71     72     73     74
    beta     71     72     73     74
 overlap   1.000  1.000  1.000  1.000

     --------------------------
     Expectation value of S2:  
     --------------------------
      <S2> =      0.0000 (Exact =     0.0000)
 

 center of mass
 --------------
 x =   0.02317606 y =   0.12587521 z =   0.00038741

 moments of inertia (a.u.)
 ------------------
         274.235468462983           6.325299804204           0.000255556661
           6.325299804204           8.669990559644           0.006985517575
           0.000255556661           0.006985517575         274.305851988240
 
     Multipole analysis of the density
     ---------------------------------
 
     L   x y z        total         alpha         beta         nuclear
     -   - - -        -----         -----         ----         -------
     0   0 0 0     -0.000000    -10.000000    -10.000000     20.000000
 
     1   1 0 0     -0.017113     -0.233673     -0.233672      0.450231
     1   0 1 0     -1.191290     -1.354827     -1.354827      1.518363
     1   0 0 1     -0.000421     -0.004000     -0.004000      0.007580
 
     2   2 0 0     -9.158359     -6.722992     -6.722991      4.287624
     2   1 1 0     -5.834119      1.509466      1.509464     -8.853049
     2   1 0 1     -0.001524     -0.000413     -0.000414     -0.000697
     2   0 2 0     -9.403909    -80.665469    -80.665466    151.927025
     2   0 1 1     -0.032683      0.000480      0.000480     -0.033643
     2   0 0 2     -9.018290     -6.642353     -6.642351      4.266415
 

 Task  times  cpu:        5.2s     wall:        5.7s
 
 
                                NWChem Input Module
                                -------------------
 
 
                                     H4O2 esp
                                     --------
  library name resolved from: environment
  library file name is: </usr/common/usg/nwchem/6.3/data/libraries/>
  
                      Basis "ao basis" -> "" (cartesian)
                      -----
  H (Hydrogen)
  ------------
            Exponent  Coefficients 
       -------------- ---------------------------------------------------------
  1 S  3.38650000E+01  0.025494
  1 S  5.09479000E+00  0.190373
  1 S  1.15879000E+00  0.852161
 
  2 S  3.25840000E-01  1.000000
 
  3 S  1.02741000E-01  1.000000
 
  4 S  3.60000000E-02  1.000000
 
  5 P  7.50000000E-01  1.000000
 
  O (Oxygen)
  ----------
            Exponent  Coefficients 
       -------------- ---------------------------------------------------------
  1 S  8.58850000E+03  0.001895
  1 S  1.29723000E+03  0.014386
  1 S  2.99296000E+02  0.070732
  1 S  8.73771000E+01  0.240001
  1 S  2.56789000E+01  0.594797
  1 S  3.74004000E+00  0.280802
 
  2 S  4.21175000E+01  0.113889
  2 S  9.62837000E+00  0.920811
  2 S  2.85332000E+00 -0.003274
 
  3 P  4.21175000E+01  0.036511
  3 P  9.62837000E+00  0.237153
  3 P  2.85332000E+00  0.819702
 
  4 S  9.05661000E-01  1.000000
 
  5 P  9.05661000E-01  1.000000
 
  6 S  2.55611000E-01  1.000000
 
  7 P  2.55611000E-01  1.000000
 
  8 S  8.45000000E-02  1.000000
 
  9 P  8.45000000E-02  1.000000
 
 10 D  1.29200000E+00  1.000000
 


 Summary of "ao basis" -> "" (cartesian)
 ------------------------------------------------------------------------------
       Tag                 Description            Shells   Functions and Types
 ---------------- ------------------------------  ------  ---------------------
 H                         6-311++G**                5        7   4s1p
 O                         6-311++G**               10       23   5s4p1d


 
 
                     NWChem Electrostatic Potential Fit Module
                     -----------------------------------------
 
 
 Atom parameters

 Number of atoms is                                    6
 Number of basis functions is                         74


 Grid parameters

 Maximum number of grid points is                   1888
 Number of grid points is                           1887
 Grid range                                     0.300000 nm
 Grid spacing                                   0.050000 nm
 Probe radius                                   0.070000 nm
 Atom radius factor                             1.000000

 Atomic radii

    1    0.100000
    8    0.136000


    Atom        Coordinates                           Charge

                                      ESP   
                                            
 
    1 O    0.005   0.154   0.000   -0.970470
    2 O   -0.002  -0.134  -0.000   -0.875359
    3 H   -0.084   0.192  -0.000    0.446358
    4 H   -0.008   0.057  -0.000    0.505605
    5 H    0.048  -0.164  -0.077    0.446212
    6 H    0.048  -0.164   0.078    0.447654
                                ------------
                                    0.000000

 Dipole moment                      1.222583

 Quadrupole moment Qxx              0.562732
                   Qyy             -1.211290
                   Qzz              0.648558

 RMS deviation kJ/mol               0.303064

 ABS deviation %                   66.788066

 Task  times  cpu:        0.2s     wall:        0.4s
 
 
                                NWChem Input Module
                                -------------------
 
 
                                     H4O2 esp
                                     --------
  library name resolved from: environment
  library file name is: </usr/common/usg/nwchem/6.3/data/libraries/>
  
                      Basis "ao basis" -> "" (cartesian)
                      -----
  H (Hydrogen)
  ------------
            Exponent  Coefficients 
       -------------- ---------------------------------------------------------
  1 S  3.38650000E+01  0.025494
  1 S  5.09479000E+00  0.190373
  1 S  1.15879000E+00  0.852161
 
  2 S  3.25840000E-01  1.000000
 
  3 S  1.02741000E-01  1.000000
 
  4 S  3.60000000E-02  1.000000
 
  5 P  7.50000000E-01  1.000000
 
  O (Oxygen)
  ----------
            Exponent  Coefficients 
       -------------- ---------------------------------------------------------
  1 S  8.58850000E+03  0.001895
  1 S  1.29723000E+03  0.014386
  1 S  2.99296000E+02  0.070732
  1 S  8.73771000E+01  0.240001
  1 S  2.56789000E+01  0.594797
  1 S  3.74004000E+00  0.280802
 
  2 S  4.21175000E+01  0.113889
  2 S  9.62837000E+00  0.920811
  2 S  2.85332000E+00 -0.003274
 
  3 P  4.21175000E+01  0.036511
  3 P  9.62837000E+00  0.237153
  3 P  2.85332000E+00  0.819702
 
  4 S  9.05661000E-01  1.000000
 
  5 P  9.05661000E-01  1.000000
 
  6 S  2.55611000E-01  1.000000
 
  7 P  2.55611000E-01  1.000000
 
  8 S  8.45000000E-02  1.000000
 
  9 P  8.45000000E-02  1.000000
 
 10 D  1.29200000E+00  1.000000
 


 Summary of "ao basis" -> "" (cartesian)
 ------------------------------------------------------------------------------
       Tag                 Description            Shells   Functions and Types
 ---------------- ------------------------------  ------  ---------------------
 H                         6-311++G**                5        7   4s1p
 O                         6-311++G**               10       23   5s4p1d


 
 
                     NWChem Electrostatic Potential Fit Module
                     -----------------------------------------
 
 
 Atom parameters

 Number of atoms is                                    6
 Number of basis functions is                          1


 Grid parameters

 Maximum number of grid points is                   1887
 Number of grid points is                           1887

 Grid read from ./mol.grid

 Atomic radii

    1    0.100000
    8    0.136000


    Atom        Coordinates                           Charge

                                      ESP   
                                            
 
    1 O    0.005   0.154   0.000   -0.970470
    2 O   -0.002  -0.134  -0.000   -0.875359
    3 H   -0.084   0.192  -0.000    0.446358
    4 H   -0.008   0.057  -0.000    0.505605
    5 H    0.048  -0.164  -0.077    0.446212
    6 H    0.048  -0.164   0.078    0.447654
                                ------------
                                    0.000000

 Dipole moment                      1.222583

 Quadrupole moment Qxx              0.562732
                   Qyy             -1.211290
                   Qzz              0.648558

 RMS deviation kJ/mol               0.303064

 ABS deviation %                   66.788176

 Task  times  cpu:        0.0s     wall:        0.3s
 
 
                                NWChem Input Module
                                -------------------
 
 
                                     H4O2 esp
                                     --------
  library name resolved from: environment
  library file name is: </usr/common/usg/nwchem/6.3/data/libraries/>
  
                      Basis "ao basis" -> "" (cartesian)
                      -----
  H (Hydrogen)
  ------------
            Exponent  Coefficients 
       -------------- ---------------------------------------------------------
  1 S  3.38650000E+01  0.025494
  1 S  5.09479000E+00  0.190373
  1 S  1.15879000E+00  0.852161
 
  2 S  3.25840000E-01  1.000000
 
  3 S  1.02741000E-01  1.000000
 
  4 S  3.60000000E-02  1.000000
 
  5 P  7.50000000E-01  1.000000
 
  O (Oxygen)
  ----------
            Exponent  Coefficients 
       -------------- ---------------------------------------------------------
  1 S  8.58850000E+03  0.001895
  1 S  1.29723000E+03  0.014386
  1 S  2.99296000E+02  0.070732
  1 S  8.73771000E+01  0.240001
  1 S  2.56789000E+01  0.594797
  1 S  3.74004000E+00  0.280802
 
  2 S  4.21175000E+01  0.113889
  2 S  9.62837000E+00  0.920811
  2 S  2.85332000E+00 -0.003274
 
  3 P  4.21175000E+01  0.036511
  3 P  9.62837000E+00  0.237153
  3 P  2.85332000E+00  0.819702
 
  4 S  9.05661000E-01  1.000000
 
  5 P  9.05661000E-01  1.000000
 
  6 S  2.55611000E-01  1.000000
 
  7 P  2.55611000E-01  1.000000
 
  8 S  8.45000000E-02  1.000000
 
  9 P  8.45000000E-02  1.000000
 
 10 D  1.29200000E+00  1.000000
 


 Summary of "ao basis" -> "" (cartesian)
 ------------------------------------------------------------------------------
       Tag                 Description            Shells   Functions and Types
 ---------------- ------------------------------  ------  ---------------------
 H                         6-311++G**                5        7   4s1p
 O                         6-311++G**               10       23   5s4p1d


 
 
                     NWChem Electrostatic Potential Fit Module
                     -----------------------------------------
 
 
 Atom parameters

 Number of atoms is                                    6
 Number of basis functions is                          1


 Grid parameters

 Maximum number of grid points is                   1887
 Number of grid points is                           1887

 Grid read from ./mol.grid

 Atomic radii

    1    0.100000
    8    0.136000


    Atom        Coordinates                           Charge

                                      ESP   
                                            
 
    1 O    0.005   0.154   0.000   -0.970470
    2 O   -0.002  -0.134  -0.000   -0.875359
    3 H   -0.084   0.192  -0.000    0.446358
    4 H   -0.008   0.057  -0.000    0.505605
    5 H    0.048  -0.164  -0.077    0.446212
    6 H    0.048  -0.164   0.078    0.447654
                                ------------
                                    0.000000

 Dipole moment                      1.222583

 Quadrupole moment Qxx              0.562732
                   Qyy             -1.211290
                   Qzz              0.648558

 RMS deviation kJ/mol               0.303064

 ABS deviation %                   66.788176

 Task  times  cpu:        0.0s     wall:        0.3s
 
 
                                NWChem Input Module
                                -------------------
 
 
 Summary of allocated global arrays
-----------------------------------
  No active global arrays



                         GA Statistics for process    0
                         ------------------------------

       create   destroy   get      put      acc     scatter   gather  read&inc
calls: 9526     1.08e+04 1.93e+05 4.01e+04 7.39e+04  542        0     9348     
number of processes/call 2.74e+00 2.04e+00 2.78e+00 2.17e+00 0.00e+00
bytes total:             6.31e+08 9.31e+07 3.75e+08 4.41e+05 0.00e+00 7.48e+04
bytes remote:            5.41e+08 6.11e+07 3.34e+08 -1.91e+05 0.00e+00 0.00e+00
Max memory consumed for GA by this process: 273992 bytes
 
MA_summarize_allocated_blocks: starting scan ...
heap block 'gridpts', handle 79, address 0x10002c05018:
	type of elements:		double precision
	number of elements:		6291456
	address of client space:	0x10002c05070
	index for client space:		137418242731
	total number of bytes:		50331744
MA_summarize_allocated_blocks: scan completed: 1 heap block, 0 stack blocks
MA usage statistics:

	allocation statistics:
					      heap	     stack
					      ----	     -----
	current number of blocks	         1	         0
	maximum number of blocks	        27	        52
	current total bytes		  50331744	         0
	maximum total bytes		  50854368	  83217600
	maximum total K-bytes		     50855	     83218
	maximum total M-bytes		        51	        84
 
 
                                     CITATION
                                     --------
                Please cite the following reference when publishing
                           results obtained with NWChem:
 
                 M. Valiev, E.J. Bylaska, N. Govind, K. Kowalski,
              T.P. Straatsma, H.J.J. van Dam, D. Wang, J. Nieplocha,
                        E. Apra, T.L. Windus, W.A. de Jong
                 "NWChem: a comprehensive and scalable open-source
                  solution for large scale molecular simulations"
                      Comput. Phys. Commun. 181, 1477 (2010)
                           doi:10.1016/j.cpc.2010.04.018
 
                              AUTHORS & CONTRIBUTORS
                              ----------------------
          E. Apra, E. J. Bylaska, W. A. de Jong, N. Govind, K. Kowalski,
       T. P. Straatsma, M. Valiev, H. J. J. van Dam, D. Wang, T. L. Windus,
        J. Hammond, J. Autschbach, K. Bhaskaran-Nair, J. Brabec, K. Lopata,
     F. Aquino, S. Hirata, M. T. Hackler, J. Mullin, P. Nichols, R. Peverati,
    J. Pittner, Y. Zhao, P.-D. Fan, R. J. Harrison, M. Dupuis, D. Silverstein,
    D. M. A. Smith, J. Nieplocha, V. Tipparaju, M. Krishnan, B. E. Van Kuiken,
        A. Vazquez-Mayagoitia, L. Jensen, M. Swart, Q. Wu, T. Van Voorhis,
     A. A. Auer, M. Nooijen, L. D. Crosby, E. Brown, G. Cisneros, G. I. Fann,
     H. Fruchtl, J. Garza, K. Hirao, R. Kendall, J. A. Nichols, K. Tsemekhman,
      K. Wolinski, J. Anchell, D. Bernholdt, P. Borowski, T. Clark, D. Clerc,
      H. Dachsel, M. Deegan, K. Dyall, D. Elwood, E. Glendening, M. Gutowski,
      A. Hess, J. Jaffe, B. Johnson, J. Ju, R. Kobayashi, R. Kutteh, Z. Lin,
   R. Littlefield, X. Long, B. Meng, T. Nakajima, S. Niu, L. Pollack, M. Rosing,
   K. Glaesemann, G. Sandrone, M. Stave, H. Taylor, G. Thomas, J. H. van Lenthe,
                                A. Wong, Z. Zhang.

 Total times  cpu:      137.7s     wall:      155.6s
Application 20325276 resources: utime ~3387s, stime ~251s, Rss ~15340, inblocks ~27910443, outblocks ~372458
