 *******************************************************************************
 ** Site#: 20348        For non-commercial use only     Version 14.139M 64BITS**
 *******************************************************************************
 ** Cite this work as:                                                        **
 **                                                                           **
 ** (a) MOPAC2012, James J. P. Stewart, Stewart Computational Chemistry,      **
 **  Version 14.139M web: HTTP://OpenMOPAC.net         Days remaining: 291    **
 **                                                                           **
 **                                 AND                                       **
 **                                                                           **
 ** (b) Maia, J.D.C., et al., J. Chem. Theory Comput. 2012, 8, 3072-3081.     **
 **                DOI: 10.1021/ct3004645.                                    **
 *******************************************************************************
 **                                                                           **
 **                                MOPAC2012                                  **
 **                                                                           **
 *******************************************************************************

                            PM7 CALCULATION RESULTS


 *******************************************************************************
 *  CALCULATION DONE:                                Fri Aug  1 15:18:46 2014  *
 *  PM7      - The PM7 Hamiltonian to be used
 *
 *
 *
 *                 CHARGE ON SYSTEM =     0
 *
 *
 *
 *  XYZ      - CARTESIAN COORDINATE SYSTEM TO BE USED
 *  EF       - USE EF ROUTINE FOR MINIMUM SEARCH
 *  T=       - A TIME OF 172800.0 SECONDS REQUESTED
 *  DUMP=N   - RESTART FILE WRITTEN EVERY  7200.000 SECONDS
 *  CYCLES=  - DO A MAXIMUM OF  1000 STEPS
 *******************************************************************************
PM7 EF CHARGE=0 XYZ CYCLES=1000
 Salt Alignment 140th Calculation

   ATOM   CHEMICAL          X               Y               Z
  NUMBER   SYMBOL      (ANGSTROMS)     (ANGSTROMS)     (ANGSTROMS)
 
     1       C          4.20759191  *   1.34211491  *   0.00000000  *
     2       C          1.96677357  *   2.67016530  *   0.00000000  *
     3       C         -0.37036223  *   1.35350996  *   0.00000000  *
     4       C         -0.37028475  *  -1.35329028  *   0.00000000  *
     5       C          1.96682837  *  -2.67006845  *   0.00000000  *
     6       C          4.20768828  *  -1.34208042  *   0.00000000  *
     7       H          5.99710208  *   2.35008916  *   0.00000000  *
     8       H          1.91824351  *   4.72226425  *   0.00000000  *
     9       H          1.91822083  *  -4.72213150  *   0.00000000  *
    10       H          5.99738742  *  -2.34971641  *   0.00000000  *
    11       C         -4.67859953  *  -1.34448038  *   0.00000000  *
    12       C         -4.67885275  *   1.34427109  *   0.00000000  *
    13       H         -6.45923743  *  -2.37641446  *   0.00000000  *
    14       N         -2.58116227  *  -2.68276174  *   0.00000000  *
    15       N         -2.58156100  *   2.68282646  *   0.00000000  *
    16       H         -6.45977601  *   2.37570250  *   0.00000000  *
    17      Li          5.02946183  *  -9.40417874  *   6.43251964  *
    18       B          9.33011354  *  30.27883412  *  -8.23701788  *
    19       F         10.34843769  *  28.24664671  *  -9.65470510  *
    20       F          7.33476295  *  31.41669410  *  -9.61526575  *
    21       F         11.24601418  *  32.09286097  *  -7.77616625  *
    22       F          8.39129962  *  29.35811232  *  -5.90331118  *
 


          CARTESIAN COORDINATES 

    NO.       ATOM         X         Y         Z

     1         C        4.2076    1.3421    0.0000
     2         C        1.9668    2.6702    0.0000
     3         C       -0.3704    1.3535    0.0000
     4         C       -0.3703   -1.3533    0.0000
     5         C        1.9668   -2.6701    0.0000
     6         C        4.2077   -1.3421    0.0000
     7         H        5.9971    2.3501    0.0000
     8         H        1.9182    4.7223    0.0000
     9         H        1.9182   -4.7221    0.0000
    10         H        5.9974   -2.3497    0.0000
    11         C       -4.6786   -1.3445    0.0000
    12         C       -4.6789    1.3443    0.0000
    13         H       -6.4592   -2.3764    0.0000
    14         N       -2.5812   -2.6828    0.0000
    15         N       -2.5816    2.6828    0.0000
    16         H       -6.4598    2.3757    0.0000
    17        Li        5.0295   -9.4042    6.4325
    18         B        9.3301   30.2788   -8.2370
    19         F       10.3484   28.2466   -9.6547
    20         F        7.3348   31.4167   -9.6153
    21         F       11.2460   32.0929   -7.7762
    22         F        8.3913   29.3581   -5.9033

     ===================== shared-memory parallel CPU Section ======================
     **                                                                           **
     **  MOPAC calculations will run in shared-memory parallel CPUs               **
     **                                                                           **
     **  Number of Threads =  2                                                   **
     **                                                                           **
     **                                                                           **
     **  For information on this work, see:                                       **
     **                                                                           **
     **  Maia, J.D.C., et al., J. Chem. Theory Comput. 2012, 8, 3072-3081.        **
     **        DOI: 10.1021/ct3004645.                                            **
     **                                                                           **
     ===================== shared-memory parallel CPU Section ======================
      


 General Reference for PM7:
 "Optimization of Parameters for Semiempirical Methods VI: More Modifications to the 
 NDDO Approximations and Re-optimization of Parameters", J. J. P. Stewart, J. Mol. Mod., 1:32, 19 (2013)
 http://www.springerlink.com/openurl.asp?genre=article&id=doi:10.1007/s00894-012-1667-x

           Empirical Formula: C8 H6 N2 Li B F4  =    22 atoms



      MOLECULAR POINT GROUP   :   C1  


      RHF CALCULATION, NO. OF DOUBLY OCCUPIED LEVELS =   40

      Geometry optimization using EF

          DIAGONAL MATRIX USED AS START HESSIAN

 CYCLE:     1 TIME:   0.051 TIME LEFT:  2.00D  GRAD.:   353.394 HEAT:  2476.773
 CYCLE:     2 TIME:   0.008 TIME LEFT:  2.00D  GRAD.:   375.267 HEAT:  2403.828
 CYCLE:     3 TIME:   0.008 TIME LEFT:  2.00D  GRAD.:   395.669 HEAT:  2327.003
 CYCLE:     4 TIME:   0.008 TIME LEFT:  2.00D  GRAD.:   416.805 HEAT:  2163.294
 CYCLE:     5 TIME:   0.008 TIME LEFT:  2.00D  GRAD.:   374.112 HEAT:  1961.212
 CYCLE:     6 TIME:   0.012 TIME LEFT:  2.00D  GRAD.:   347.440 HEAT:  1793.365
 CYCLE:     7 TIME:   0.008 TIME LEFT:  2.00D  GRAD.:   545.706 HEAT:  1605.821
 CYCLE:     8 TIME:   0.008 TIME LEFT:  2.00D  GRAD.:   458.773 HEAT:  1406.907
 CYCLE:     9 TIME:   0.012 TIME LEFT:  2.00D  GRAD.:   533.548 HEAT:  1264.267
 CYCLE:    10 TIME:   0.008 TIME LEFT:  2.00D  GRAD.:   510.361 HEAT:  1208.390
 CYCLE:    11 TIME:   0.008 TIME LEFT:  2.00D  GRAD.:   378.299 HEAT:  1070.429
 CYCLE:    12 TIME:   0.008 TIME LEFT:  2.00D  GRAD.:   342.211 HEAT:  944.2258
 CYCLE:    13 TIME:   0.008 TIME LEFT:  2.00D  GRAD.:   449.158 HEAT:  838.9424
 CYCLE:    14 TIME:   0.027 TIME LEFT:  2.00D  GRAD.:   824.243 HEAT:  545.9283
 CYCLE:    15 TIME:   0.008 TIME LEFT:  2.00D  GRAD.:   818.982 HEAT:  439.2989
 CYCLE:    16 TIME:   0.008 TIME LEFT:  2.00D  GRAD.:   767.565 HEAT:  361.0418
 CYCLE:    17 TIME:   0.008 TIME LEFT:  2.00D  GRAD.:   668.393 HEAT:  228.7861
 CYCLE:    18 TIME:   0.008 TIME LEFT:  2.00D  GRAD.:   952.988 HEAT:  182.1008
 CYCLE:    19 TIME:   0.016 TIME LEFT:  2.00D  GRAD.:   293.077 HEAT:  84.18636
 CYCLE:    20 TIME:   0.020 TIME LEFT:  2.00D  GRAD.:   238.811 HEAT:  72.11742
 CYCLE:    21 TIME:   0.008 TIME LEFT:  2.00D  GRAD.:   119.557 HEAT:  58.48327
 CYCLE:    22 TIME:   0.008 TIME LEFT:  2.00D  GRAD.:   182.346 HEAT:  51.70553
 CYCLE:    23 TIME:   0.012 TIME LEFT:  2.00D  GRAD.:   184.839 HEAT:  48.02705
 CYCLE:    24 TIME:   0.016 TIME LEFT:  2.00D  GRAD.:   117.236 HEAT:  43.63424
 CYCLE:    25 TIME:   0.016 TIME LEFT:  2.00D  GRAD.:    48.148 HEAT:  41.53263
 CYCLE:    26 TIME:   0.008 TIME LEFT:  2.00D  GRAD.:    40.389 HEAT:  41.05620
 CYCLE:    27 TIME:   0.020 TIME LEFT:  2.00D  GRAD.:    57.554 HEAT:  40.74089
 CYCLE:    28 TIME:   0.008 TIME LEFT:  2.00D  GRAD.:    33.193 HEAT:  40.63622
 CYCLE:    29 TIME:   0.008 TIME LEFT:  2.00D  GRAD.:    35.560 HEAT:  40.58086
 CYCLE:    30 TIME:   0.016 TIME LEFT:  2.00D  GRAD.:    19.725 HEAT:  40.35791
 CYCLE:    31 TIME:   0.016 TIME LEFT:  2.00D  GRAD.:    12.608 HEAT:  40.30398
 CYCLE:    32 TIME:   0.008 TIME LEFT:  2.00D  GRAD.:    11.702 HEAT:  40.29343
 CYCLE:    33 TIME:   0.008 TIME LEFT:  2.00D  GRAD.:    15.624 HEAT:  40.26759
 CYCLE:    34 TIME:   0.008 TIME LEFT:  2.00D  GRAD.:     7.910 HEAT:  40.22988
 CYCLE:    35 TIME:   0.004 TIME LEFT:  2.00D  GRAD.:    13.136 HEAT:  40.21545
 CYCLE:    36 TIME:   0.008 TIME LEFT:  2.00D  GRAD.:    11.188 HEAT:  40.16412
 CYCLE:    37 TIME:   0.008 TIME LEFT:  2.00D  GRAD.:    14.615 HEAT:  40.14078
 CYCLE:    38 TIME:   0.016 TIME LEFT:  2.00D  GRAD.:    16.048 HEAT:  40.11540
 CYCLE:    39 TIME:   0.004 TIME LEFT:  2.00D  GRAD.:     7.595 HEAT:  40.05764
 CYCLE:    40 TIME:   0.008 TIME LEFT:  2.00D  GRAD.:     3.621 HEAT:  40.01295
 CYCLE:    41 TIME:   0.012 TIME LEFT:  2.00D  GRAD.:     7.497 HEAT:  39.94795
 CYCLE:    42 TIME:   0.008 TIME LEFT:  2.00D  GRAD.:    13.638 HEAT:  39.82126
 CYCLE:    43 TIME:   0.004 TIME LEFT:  2.00D  GRAD.:    17.550 HEAT:  39.62887
 CYCLE:    44 TIME:   0.008 TIME LEFT:  2.00D  GRAD.:    22.295 HEAT:  39.46050
 CYCLE:    45 TIME:   0.008 TIME LEFT:  2.00D  GRAD.:    13.993 HEAT:  39.06079
 CYCLE:    46 TIME:   0.008 TIME LEFT:  2.00D  GRAD.:     8.257 HEAT:  38.81816
 CYCLE:    47 TIME:   0.012 TIME LEFT:  2.00D  GRAD.:    17.209 HEAT:  38.62587
 CYCLE:    48 TIME:   0.004 TIME LEFT:  2.00D  GRAD.:     8.121 HEAT:  38.45169
 CYCLE:    49 TIME:   0.016 TIME LEFT:  2.00D  GRAD.:    20.931 HEAT:  38.42124
 CYCLE:    50 TIME:   0.012 TIME LEFT:  2.00D  GRAD.:    20.486 HEAT:  38.35870
 CYCLE:    51 TIME:   0.023 TIME LEFT:  2.00D  GRAD.:    16.134 HEAT:  38.31912
 CYCLE:    52 TIME:   0.008 TIME LEFT:  2.00D  GRAD.:     6.793 HEAT:  38.26993
 CYCLE:    53 TIME:   0.004 TIME LEFT:  2.00D  GRAD.:     5.399 HEAT:  38.25538
 CYCLE:    54 TIME:   0.012 TIME LEFT:  2.00D  GRAD.:     3.814 HEAT:  38.23867
 CYCLE:    55 TIME:   0.008 TIME LEFT:  2.00D  GRAD.:     3.742 HEAT:  38.20497
 CYCLE:    56 TIME:   0.012 TIME LEFT:  2.00D  GRAD.:     4.426 HEAT:  38.18750
 CYCLE:    57 TIME:   0.008 TIME LEFT:  2.00D  GRAD.:     9.628 HEAT:  38.17880
 CYCLE:    58 TIME:   0.012 TIME LEFT:  2.00D  GRAD.:    11.477 HEAT:  38.17343
 CYCLE:    59 TIME:   0.008 TIME LEFT:  2.00D  GRAD.:    13.113 HEAT:  38.17054
 CYCLE:    60 TIME:   0.008 TIME LEFT:  2.00D  GRAD.:    14.851 HEAT:  38.14967
 CYCLE:    61 TIME:   0.008 TIME LEFT:  2.00D  GRAD.:     9.476 HEAT:  38.10439
 CYCLE:    62 TIME:   0.004 TIME LEFT:  2.00D  GRAD.:     5.246 HEAT:  38.07941
 CYCLE:    63 TIME:   0.012 TIME LEFT:  2.00D  GRAD.:    11.188 HEAT:  38.03943
 CYCLE:    64 TIME:   0.008 TIME LEFT:  2.00D  GRAD.:     6.665 HEAT:  37.99347
 CYCLE:    65 TIME:   0.008 TIME LEFT:  2.00D  GRAD.:    10.113 HEAT:  37.92608
 CYCLE:    66 TIME:   0.008 TIME LEFT:  2.00D  GRAD.:    13.189 HEAT:  37.87480
 CYCLE:    67 TIME:   0.008 TIME LEFT:  2.00D  GRAD.:    12.834 HEAT:  37.71827
 CYCLE:    68 TIME:   0.008 TIME LEFT:  2.00D  GRAD.:     6.152 HEAT:  37.55205
 CYCLE:    69 TIME:   0.012 TIME LEFT:  2.00D  GRAD.:    15.039 HEAT:  37.40320
 CYCLE:    70 TIME:   0.035 TIME LEFT:  2.00D  GRAD.:    22.985 HEAT:  37.40036
 CYCLE:    71 TIME:   0.008 TIME LEFT:  2.00D  GRAD.:    11.385 HEAT:  37.32922
 CYCLE:    72 TIME:   0.008 TIME LEFT:  2.00D  GRAD.:     3.412 HEAT:  37.28831
 CYCLE:    73 TIME:   0.008 TIME LEFT:  2.00D  GRAD.:     2.018 HEAT:  37.24722
 CYCLE:    74 TIME:   0.008 TIME LEFT:  2.00D  GRAD.:     3.046 HEAT:  37.19439
 CYCLE:    75 TIME:   0.008 TIME LEFT:  2.00D  GRAD.:     3.450 HEAT:  37.09665
 CYCLE:    76 TIME:   0.008 TIME LEFT:  2.00D  GRAD.:     5.344 HEAT:  36.91525
 CYCLE:    77 TIME:   0.012 TIME LEFT:  2.00D  GRAD.:    20.087 HEAT:  36.66763
 CYCLE:    78 TIME:   0.008 TIME LEFT:  2.00D  GRAD.:    13.340 HEAT:  36.52134
 CYCLE:    79 TIME:   0.027 TIME LEFT:  2.00D  GRAD.:    16.504 HEAT:  36.50961
 CYCLE:    80 TIME:   0.004 TIME LEFT:  2.00D  GRAD.:    13.873 HEAT:  36.42185
 CYCLE:    81 TIME:   0.012 TIME LEFT:  2.00D  GRAD.:     6.226 HEAT:  36.36517
 CYCLE:    82 TIME:   0.004 TIME LEFT:  2.00D  GRAD.:     6.031 HEAT:  36.30726
 CYCLE:    83 TIME:   0.012 TIME LEFT:  2.00D  GRAD.:     8.145 HEAT:  36.23631
 CYCLE:    84 TIME:   0.012 TIME LEFT:  2.00D  GRAD.:     8.465 HEAT:  36.22725
 CYCLE:    85 TIME:   0.008 TIME LEFT:  2.00D  GRAD.:    10.406 HEAT:  36.20347
 CYCLE:    86 TIME:   0.008 TIME LEFT:  2.00D  GRAD.:     9.857 HEAT:  36.16260
 CYCLE:    87 TIME:   0.008 TIME LEFT:  2.00D  GRAD.:     6.708 HEAT:  36.12831
 CYCLE:    88 TIME:   0.008 TIME LEFT:  2.00D  GRAD.:     7.438 HEAT:  36.07935
 CYCLE:    89 TIME:   0.008 TIME LEFT:  2.00D  GRAD.:     7.867 HEAT:  36.00632
 CYCLE:    90 TIME:   0.004 TIME LEFT:  2.00D  GRAD.:     6.685 HEAT:  35.91492
 CYCLE:    91 TIME:   0.012 TIME LEFT:  2.00D  GRAD.:    13.309 HEAT:  35.80487
 CYCLE:    92 TIME:   0.008 TIME LEFT:  2.00D  GRAD.:    12.320 HEAT:  35.74344
 CYCLE:    93 TIME:   0.012 TIME LEFT:  2.00D  GRAD.:    10.348 HEAT:  35.72278
 CYCLE:    94 TIME:   0.004 TIME LEFT:  2.00D  GRAD.:    10.235 HEAT:  35.68169
 CYCLE:    95 TIME:   0.008 TIME LEFT:  2.00D  GRAD.:     3.365 HEAT:  35.65208
 CYCLE:    96 TIME:   0.008 TIME LEFT:  2.00D  GRAD.:     4.998 HEAT:  35.63505
 CYCLE:    97 TIME:   0.008 TIME LEFT:  2.00D  GRAD.:     4.436 HEAT:  35.59808
 CYCLE:    98 TIME:   0.016 TIME LEFT:  2.00D  GRAD.:     3.370 HEAT:  35.59616
 CYCLE:    99 TIME:   0.008 TIME LEFT:  2.00D  GRAD.:     2.696 HEAT:  35.58618
 CYCLE:   100 TIME:   0.008 TIME LEFT:  2.00D  GRAD.:    10.852 HEAT:  35.55029
 CYCLE:   101 TIME:   0.008 TIME LEFT:  2.00D  GRAD.:     7.051 HEAT:  35.50139
 CYCLE:   102 TIME:   0.012 TIME LEFT:  2.00D  GRAD.:     5.985 HEAT:  35.42374
 CYCLE:   103 TIME:   0.008 TIME LEFT:  2.00D  GRAD.:     6.169 HEAT:  35.34150
 CYCLE:   104 TIME:   0.008 TIME LEFT:  2.00D  GRAD.:     9.108 HEAT:  35.24674
 CYCLE:   105 TIME:   0.008 TIME LEFT:  2.00D  GRAD.:     7.024 HEAT:  35.19568
 CYCLE:   106 TIME:   0.008 TIME LEFT:  2.00D  GRAD.:    16.729 HEAT:  35.13481
 CYCLE:   107 TIME:   0.008 TIME LEFT:  2.00D  GRAD.:    10.617 HEAT:  35.03742
 CYCLE:   108 TIME:   0.008 TIME LEFT:  2.00D  GRAD.:    12.686 HEAT:  34.95805
 CYCLE:   109 TIME:   0.012 TIME LEFT:  2.00D  GRAD.:    13.464 HEAT:  34.86887
 CYCLE:   110 TIME:   0.008 TIME LEFT:  2.00D  GRAD.:    17.762 HEAT:  34.69297
 CYCLE:   111 TIME:   0.008 TIME LEFT:  2.00D  GRAD.:    37.515 HEAT:  34.41451
 CYCLE:   112 TIME:   0.012 TIME LEFT:  2.00D  GRAD.:    59.474 HEAT:  33.33602
 CYCLE:   113 TIME:   0.027 TIME LEFT:  2.00D  GRAD.:    85.781 HEAT:  32.35019
 CYCLE:   114 TIME:   0.008 TIME LEFT:  2.00D  GRAD.:    39.227 HEAT:  30.61463
 CYCLE:   115 TIME:   0.012 TIME LEFT:  2.00D  GRAD.:    35.459 HEAT:  28.77966
 CYCLE:   116 TIME:   0.027 TIME LEFT:  2.00D  GRAD.:    43.792 HEAT:  28.48983
 CYCLE:   117 TIME:   0.008 TIME LEFT:  2.00D  GRAD.:    33.314 HEAT:  27.76263
 CYCLE:   118 TIME:   0.012 TIME LEFT:  2.00D  GRAD.:    38.164 HEAT:  25.70710
 CYCLE:   119 TIME:   0.004 TIME LEFT:  2.00D  GRAD.:    57.716 HEAT:  23.67755
 CYCLE:   120 TIME:   0.012 TIME LEFT:  2.00D  GRAD.:   111.009 HEAT:  22.37279
 CYCLE:   121 TIME:   0.008 TIME LEFT:  2.00D  GRAD.:   112.923 HEAT:  13.38005
 CYCLE:   122 TIME:   0.008 TIME LEFT:  2.00D  GRAD.:   205.789 HEAT: -9.819724
 CYCLE:   123 TIME:   0.012 TIME LEFT:  2.00D  GRAD.:   199.861 HEAT: -43.89754
 CYCLE:   124 TIME:   0.012 TIME LEFT:  2.00D  GRAD.:   170.197 HEAT: -62.87594
 CYCLE:   125 TIME:   0.016 TIME LEFT:  2.00D  GRAD.:   185.414 HEAT: -70.47261
 CYCLE:   126 TIME:   0.016 TIME LEFT:  2.00D  GRAD.:   120.021 HEAT: -74.88065
 CYCLE:   127 TIME:   0.008 TIME LEFT:  2.00D  GRAD.:    58.866 HEAT: -79.34760
 CYCLE:   128 TIME:   0.008 TIME LEFT:  2.00D  GRAD.:    85.210 HEAT: -81.36374
 CYCLE:   129 TIME:   0.008 TIME LEFT:  2.00D  GRAD.:    66.565 HEAT: -82.79667
 CYCLE:   130 TIME:   0.008 TIME LEFT:  2.00D  GRAD.:    84.660 HEAT: -82.86324
 CYCLE:   131 TIME:   0.016 TIME LEFT:  2.00D  GRAD.:    32.263 HEAT: -84.37283
 CYCLE:   132 TIME:   0.027 TIME LEFT:  2.00D  GRAD.:    46.696 HEAT: -84.57698
 CYCLE:   133 TIME:   0.004 TIME LEFT:  2.00D  GRAD.:    15.061 HEAT: -84.88464
 CYCLE:   134 TIME:   0.012 TIME LEFT:  2.00D  GRAD.:    34.717 HEAT: -85.01028
 CYCLE:   135 TIME:   0.008 TIME LEFT:  2.00D  GRAD.:    25.228 HEAT: -85.28913
 CYCLE:   136 TIME:   0.008 TIME LEFT:  2.00D  GRAD.:    46.704 HEAT: -85.30769
 CYCLE:   137 TIME:   0.012 TIME LEFT:  2.00D  GRAD.:    13.572 HEAT: -85.94849
 CYCLE:   138 TIME:   0.008 TIME LEFT:  2.00D  GRAD.:    10.780 HEAT: -86.14492
 CYCLE:   139 TIME:   0.008 TIME LEFT:  2.00D  GRAD.:    13.142 HEAT: -86.21818
 CYCLE:   140 TIME:   0.008 TIME LEFT:  2.00D  GRAD.:     6.373 HEAT: -86.27469
 CYCLE:   141 TIME:   0.008 TIME LEFT:  2.00D  GRAD.:     5.443 HEAT: -86.29053
 CYCLE:   142 TIME:   0.008 TIME LEFT:  2.00D  GRAD.:     5.062 HEAT: -86.30846
 CYCLE:   143 TIME:   0.004 TIME LEFT:  2.00D  GRAD.:     5.710 HEAT: -86.32438
 CYCLE:   144 TIME:   0.008 TIME LEFT:  2.00D  GRAD.:     6.748 HEAT: -86.34657
 CYCLE:   145 TIME:   0.008 TIME LEFT:  2.00D  GRAD.:     7.432 HEAT: -86.37405
 CYCLE:   146 TIME:   0.008 TIME LEFT:  2.00D  GRAD.:     5.682 HEAT: -86.41404
 CYCLE:   147 TIME:   0.012 TIME LEFT:  2.00D  GRAD.:     4.372 HEAT: -86.43406
 CYCLE:   148 TIME:   0.008 TIME LEFT:  2.00D  GRAD.:     3.942 HEAT: -86.44825
 CYCLE:   149 TIME:   0.008 TIME LEFT:  2.00D  GRAD.:     3.301 HEAT: -86.45652
 CYCLE:   150 TIME:   0.008 TIME LEFT:  2.00D  GRAD.:     3.224 HEAT: -86.46658
 CYCLE:   151 TIME:   0.008 TIME LEFT:  2.00D  GRAD.:     3.900 HEAT: -86.47742
 CYCLE:   152 TIME:   0.004 TIME LEFT:  2.00D  GRAD.:     5.387 HEAT: -86.50410
 CYCLE:   153 TIME:   0.008 TIME LEFT:  2.00D  GRAD.:     7.326 HEAT: -86.53420
 CYCLE:   154 TIME:   0.008 TIME LEFT:  2.00D  GRAD.:    12.804 HEAT: -86.61710
 CYCLE:   155 TIME:   0.008 TIME LEFT:  2.00D  GRAD.:    14.422 HEAT: -86.81573
 CYCLE:   156 TIME:   0.008 TIME LEFT:  2.00D  GRAD.:    15.223 HEAT: -86.99837
 CYCLE:   157 TIME:   0.008 TIME LEFT:  2.00D  GRAD.:     9.808 HEAT: -87.23070
 CYCLE:   158 TIME:   0.008 TIME LEFT:  2.00D  GRAD.:     9.197 HEAT: -87.55232
 CYCLE:   159 TIME:   0.008 TIME LEFT:  2.00D  GRAD.:     7.434 HEAT: -87.66394
 CYCLE:   160 TIME:   0.004 TIME LEFT:  2.00D  GRAD.:     6.067 HEAT: -87.74307
 CYCLE:   161 TIME:   0.008 TIME LEFT:  2.00D  GRAD.:     6.963 HEAT: -87.77889
 CYCLE:   162 TIME:   0.004 TIME LEFT:  2.00D  GRAD.:     7.089 HEAT: -87.84765
 CYCLE:   163 TIME:   0.008 TIME LEFT:  2.00D  GRAD.:     6.208 HEAT: -87.88731
 CYCLE:   164 TIME:   0.004 TIME LEFT:  2.00D  GRAD.:     4.086 HEAT: -87.90033
 CYCLE:   165 TIME:   0.008 TIME LEFT:  2.00D  GRAD.:     3.305 HEAT: -87.90924
 CYCLE:   166 TIME:   0.008 TIME LEFT:  2.00D  GRAD.:     2.111 HEAT: -87.91422
 CYCLE:   167 TIME:   0.004 TIME LEFT:  2.00D  GRAD.:     2.626 HEAT: -87.92325
 CYCLE:   168 TIME:   0.008 TIME LEFT:  2.00D  GRAD.:     3.187 HEAT: -87.96074
 CYCLE:   169 TIME:   0.008 TIME LEFT:  2.00D  GRAD.:     5.222 HEAT: -88.05451
 CYCLE:   170 TIME:   0.004 TIME LEFT:  2.00D  GRAD.:     4.186 HEAT: -88.11932
 CYCLE:   171 TIME:   0.008 TIME LEFT:  2.00D  GRAD.:     4.220 HEAT: -88.21361
 CYCLE:   172 TIME:   0.008 TIME LEFT:  2.00D  GRAD.:     3.668 HEAT: -88.27382
 CYCLE:   173 TIME:   0.004 TIME LEFT:  2.00D  GRAD.:     4.183 HEAT: -88.37103
 CYCLE:   174 TIME:   0.008 TIME LEFT:  2.00D  GRAD.:     5.406 HEAT: -88.52818
 CYCLE:   175 TIME:   0.008 TIME LEFT:  2.00D  GRAD.:     9.285 HEAT: -89.58079
 CYCLE:   176 TIME:   0.008 TIME LEFT:  2.00D  GRAD.:    13.660 HEAT: -93.28345
 CYCLE:   177 TIME:   0.008 TIME LEFT:  2.00D  GRAD.:    16.867 HEAT: -98.06144
 CYCLE:   178 TIME:   0.004 TIME LEFT:  2.00D  GRAD.:    30.716 HEAT: -99.01917
 CYCLE:   179 TIME:   0.008 TIME LEFT:  2.00D  GRAD.:    14.949 HEAT: -100.0452
 CYCLE:   180 TIME:   0.008 TIME LEFT:  2.00D  GRAD.:     9.743 HEAT: -100.5590
 CYCLE:   181 TIME:   0.004 TIME LEFT:  2.00D  GRAD.:    11.000 HEAT: -100.7012
 CYCLE:   182 TIME:   0.008 TIME LEFT:  2.00D  GRAD.:     8.372 HEAT: -100.7666
 CYCLE:   183 TIME:   0.008 TIME LEFT:  2.00D  GRAD.:     6.444 HEAT: -100.8764
 CYCLE:   184 TIME:   0.008 TIME LEFT:  2.00D  GRAD.:    13.010 HEAT: -101.0697
 CYCLE:   185 TIME:   0.008 TIME LEFT:  2.00D  GRAD.:    13.950 HEAT: -101.2557
 CYCLE:   186 TIME:   0.004 TIME LEFT:  2.00D  GRAD.:    16.014 HEAT: -101.4676
 CYCLE:   187 TIME:   0.008 TIME LEFT:  2.00D  GRAD.:    16.974 HEAT: -101.6294
 CYCLE:   188 TIME:   0.004 TIME LEFT:  2.00D  GRAD.:    14.324 HEAT: -101.7244
 CYCLE:   189 TIME:   0.008 TIME LEFT:  2.00D  GRAD.:    14.695 HEAT: -101.9368
 CYCLE:   190 TIME:   0.008 TIME LEFT:  2.00D  GRAD.:    23.208 HEAT: -102.3999
 CYCLE:   191 TIME:   0.008 TIME LEFT:  2.00D  GRAD.:    26.815 HEAT: -103.1399
 CYCLE:   192 TIME:   0.004 TIME LEFT:  2.00D  GRAD.:    28.603 HEAT: -104.1587
 CYCLE:   193 TIME:   0.008 TIME LEFT:  2.00D  GRAD.:    36.947 HEAT: -104.9753
 CYCLE:   194 TIME:   0.008 TIME LEFT:  2.00D  GRAD.:    24.031 HEAT: -105.5236
 CYCLE:   195 TIME:   0.008 TIME LEFT:  2.00D  GRAD.:    45.764 HEAT: -106.8686
 CYCLE:   196 TIME:   0.008 TIME LEFT:  2.00D  GRAD.:    53.218 HEAT: -109.9338
 CYCLE:   197 TIME:   0.004 TIME LEFT:  2.00D  GRAD.:   118.370 HEAT: -114.0013
 CYCLE:   198 TIME:   0.008 TIME LEFT:  2.00D  GRAD.:   113.351 HEAT: -117.8910
 CYCLE:   199 TIME:   0.008 TIME LEFT:  2.00D  GRAD.:   156.154 HEAT: -119.4421
 CYCLE:   200 TIME:   0.016 TIME LEFT:  2.00D  GRAD.:    98.691 HEAT: -120.8482
 CYCLE:   201 TIME:   0.008 TIME LEFT:  2.00D  GRAD.:   126.976 HEAT: -122.0060
 CYCLE:   202 TIME:   0.008 TIME LEFT:  2.00D  GRAD.:    80.829 HEAT: -123.5745
 CYCLE:   203 TIME:   0.008 TIME LEFT:  2.00D  GRAD.:    89.949 HEAT: -124.0626
 CYCLE:   204 TIME:   0.008 TIME LEFT:  2.00D  GRAD.:    80.200 HEAT: -125.0261
 CYCLE:   205 TIME:   0.008 TIME LEFT:  2.00D  GRAD.:    34.928 HEAT: -126.2246
 CYCLE:   206 TIME:   0.008 TIME LEFT:  2.00D  GRAD.:    41.014 HEAT: -126.7644
 CYCLE:   207 TIME:   0.008 TIME LEFT:  2.00D  GRAD.:    41.887 HEAT: -127.8073
 CYCLE:   208 TIME:   0.008 TIME LEFT:  2.00D  GRAD.:    70.914 HEAT: -129.5675
 CYCLE:   209 TIME:   0.008 TIME LEFT:  2.00D  GRAD.:    42.787 HEAT: -130.3672
 CYCLE:   210 TIME:   0.008 TIME LEFT:  2.00D  GRAD.:    77.746 HEAT: -131.1619
 CYCLE:   211 TIME:   0.008 TIME LEFT:  2.00D  GRAD.:    53.746 HEAT: -131.9883
 CYCLE:   212 TIME:   0.008 TIME LEFT:  2.00D  GRAD.:    46.443 HEAT: -133.1177
 CYCLE:   213 TIME:   0.008 TIME LEFT:  2.00D  GRAD.:    41.462 HEAT: -134.3063
 CYCLE:   214 TIME:   0.016 TIME LEFT:  2.00D  GRAD.:    60.148 HEAT: -134.3207
 CYCLE:   215 TIME:   0.008 TIME LEFT:  2.00D  GRAD.:    62.445 HEAT: -135.0764
 CYCLE:   216 TIME:   0.008 TIME LEFT:  2.00D  GRAD.:    34.385 HEAT: -135.3768
 CYCLE:   217 TIME:   0.008 TIME LEFT:  2.00D  GRAD.:    49.034 HEAT: -135.8253
 CYCLE:   218 TIME:   0.008 TIME LEFT:  2.00D  GRAD.:    22.259 HEAT: -136.0164
 CYCLE:   219 TIME:   0.008 TIME LEFT:  2.00D  GRAD.:    13.291 HEAT: -136.2321
 CYCLE:   220 TIME:   0.008 TIME LEFT:  2.00D  GRAD.:    25.934 HEAT: -136.3262
 CYCLE:   221 TIME:   0.012 TIME LEFT:  2.00D  GRAD.:    17.354 HEAT: -136.4445
 CYCLE:   222 TIME:   0.008 TIME LEFT:  2.00D  GRAD.:     9.226 HEAT: -136.4847
 CYCLE:   223 TIME:   0.004 TIME LEFT:  2.00D  GRAD.:     7.806 HEAT: -136.5192
 CYCLE:   224 TIME:   0.008 TIME LEFT:  2.00D  GRAD.:     6.847 HEAT: -136.5559
 CYCLE:   225 TIME:   0.008 TIME LEFT:  2.00D  GRAD.:     6.546 HEAT: -136.6172
 CYCLE:   226 TIME:   0.012 TIME LEFT:  2.00D  GRAD.:     8.491 HEAT: -136.6569
 CYCLE:   227 TIME:   0.008 TIME LEFT:  2.00D  GRAD.:     9.397 HEAT: -136.7082
 CYCLE:   228 TIME:   0.008 TIME LEFT:  2.00D  GRAD.:     9.350 HEAT: -136.7681
 CYCLE:   229 TIME:   0.004 TIME LEFT:  2.00D  GRAD.:     8.952 HEAT: -136.8292
 CYCLE:   230 TIME:   0.008 TIME LEFT:  2.00D  GRAD.:    13.495 HEAT: -136.8753
 CYCLE:   231 TIME:   0.012 TIME LEFT:  2.00D  GRAD.:     9.357 HEAT: -136.9301
 CYCLE:   232 TIME:   0.008 TIME LEFT:  2.00D  GRAD.:    13.000 HEAT: -137.0064
 CYCLE:   233 TIME:   0.008 TIME LEFT:  2.00D  GRAD.:     5.994 HEAT: -137.0534
 CYCLE:   234 TIME:   0.008 TIME LEFT:  2.00D  GRAD.:     6.315 HEAT: -137.0767
 CYCLE:   235 TIME:   0.008 TIME LEFT:  2.00D  GRAD.:     4.928 HEAT: -137.0933
 CYCLE:   236 TIME:   0.008 TIME LEFT:  2.00D  GRAD.:     2.978 HEAT: -137.1070
 CYCLE:   237 TIME:   0.008 TIME LEFT:  2.00D  GRAD.:     2.508 HEAT: -137.1160
 CYCLE:   238 TIME:   0.004 TIME LEFT:  2.00D  GRAD.:     3.462 HEAT: -137.1238
 CYCLE:   239 TIME:   0.012 TIME LEFT:  2.00D  GRAD.:     3.425 HEAT: -137.1343
 CYCLE:   240 TIME:   0.008 TIME LEFT:  2.00D  GRAD.:     4.704 HEAT: -137.1482
 CYCLE:   241 TIME:   0.008 TIME LEFT:  2.00D  GRAD.:     5.605 HEAT: -137.1667
 CYCLE:   242 TIME:   0.008 TIME LEFT:  2.00D  GRAD.:    12.628 HEAT: -137.1789
 CYCLE:   243 TIME:   0.008 TIME LEFT:  2.00D  GRAD.:    12.568 HEAT: -137.2460
 CYCLE:   244 TIME:   0.008 TIME LEFT:  2.00D  GRAD.:     9.175 HEAT: -137.2805
 CYCLE:   245 TIME:   0.008 TIME LEFT:  2.00D  GRAD.:     7.197 HEAT: -137.3475
 CYCLE:   246 TIME:   0.008 TIME LEFT:  2.00D  GRAD.:     4.825 HEAT: -137.3740
 CYCLE:   247 TIME:   0.008 TIME LEFT:  2.00D  GRAD.:     8.244 HEAT: -137.3858
 CYCLE:   248 TIME:   0.008 TIME LEFT:  2.00D  GRAD.:     7.069 HEAT: -137.3958
 CYCLE:   249 TIME:   0.008 TIME LEFT:  2.00D  GRAD.:     3.213 HEAT: -137.4112
 CYCLE:   250 TIME:   0.008 TIME LEFT:  2.00D  GRAD.:     3.580 HEAT: -137.4121
 CYCLE:   251 TIME:   0.008 TIME LEFT:  2.00D  GRAD.:     2.881 HEAT: -137.4167
 CYCLE:   252 TIME:   0.016 TIME LEFT:  2.00D  GRAD.:     4.311 HEAT: -137.4367
 CYCLE:   253 TIME:   0.008 TIME LEFT:  2.00D  GRAD.:     4.404 HEAT: -137.4634
 CYCLE:   254 TIME:   0.008 TIME LEFT:  2.00D  GRAD.:    10.539 HEAT: -137.4735
 CYCLE:   255 TIME:   0.008 TIME LEFT:  2.00D  GRAD.:     4.127 HEAT: -137.5303
 CYCLE:   256 TIME:   0.008 TIME LEFT:  2.00D  GRAD.:     9.584 HEAT: -137.5632
 CYCLE:   257 TIME:   0.008 TIME LEFT:  2.00D  GRAD.:     6.707 HEAT: -137.5847
 CYCLE:   258 TIME:   0.020 TIME LEFT:  2.00D  GRAD.:    10.973 HEAT: -137.6020
 CYCLE:   259 TIME:   0.004 TIME LEFT:  2.00D  GRAD.:     4.224 HEAT: -137.6176
 CYCLE:   260 TIME:   0.008 TIME LEFT:  2.00D  GRAD.:     3.418 HEAT: -137.6296
 CYCLE:   261 TIME:   0.012 TIME LEFT:  2.00D  GRAD.:     9.883 HEAT: -137.6490
 CYCLE:   262 TIME:   0.012 TIME LEFT:  2.00D  GRAD.:     5.866 HEAT: -137.6538
 CYCLE:   263 TIME:   0.020 TIME LEFT:  2.00D  GRAD.:    12.827 HEAT: -137.6606
 CYCLE:   264 TIME:   0.008 TIME LEFT:  2.00D  GRAD.:     4.770 HEAT: -137.6867
 CYCLE:   265 TIME:   0.008 TIME LEFT:  2.00D  GRAD.:     4.622 HEAT: -137.6931
 CYCLE:   266 TIME:   0.008 TIME LEFT:  2.00D  GRAD.:     2.209 HEAT: -137.7052
 CYCLE:   267 TIME:   0.008 TIME LEFT:  2.00D  GRAD.:     2.264 HEAT: -137.7165
 CYCLE:   268 TIME:   0.008 TIME LEFT:  2.00D  GRAD.:     1.997 HEAT: -137.7331
 CYCLE:   269 TIME:   0.008 TIME LEFT:  2.00D  GRAD.:     1.762 HEAT: -137.7558
 CYCLE:   270 TIME:   0.008 TIME LEFT:  2.00D  GRAD.:     3.357 HEAT: -137.7827
 CYCLE:   271 TIME:   0.023 TIME LEFT:  2.00D  GRAD.:     5.407 HEAT: -137.7869
 CYCLE:   272 TIME:   0.012 TIME LEFT:  2.00D  GRAD.:     2.574 HEAT: -137.8007
 CYCLE:   273 TIME:   0.008 TIME LEFT:  2.00D  GRAD.:     1.837 HEAT: -137.8139
 CYCLE:   274 TIME:   0.004 TIME LEFT:  2.00D  GRAD.:     3.243 HEAT: -137.8364
 CYCLE:   275 TIME:   0.008 TIME LEFT:  2.00D  GRAD.:     4.753 HEAT: -137.8688
 CYCLE:   276 TIME:   0.008 TIME LEFT:  2.00D  GRAD.:     5.019 HEAT: -137.9112
 CYCLE:   277 TIME:   0.020 TIME LEFT:  2.00D  GRAD.:    19.356 HEAT: -137.9209
 CYCLE:   278 TIME:   0.020 TIME LEFT:  2.00D  GRAD.:    12.790 HEAT: -137.9417
 CYCLE:   279 TIME:   0.008 TIME LEFT:  2.00D  GRAD.:    10.246 HEAT: -137.9564
 CYCLE:   280 TIME:   0.008 TIME LEFT:  2.00D  GRAD.:     3.987 HEAT: -137.9797
 CYCLE:   281 TIME:   0.008 TIME LEFT:  2.00D  GRAD.:     7.344 HEAT: -137.9928
 CYCLE:   282 TIME:   0.008 TIME LEFT:  2.00D  GRAD.:     5.605 HEAT: -138.0160
 CYCLE:   283 TIME:   0.008 TIME LEFT:  2.00D  GRAD.:     7.903 HEAT: -138.0381
 CYCLE:   284 TIME:   0.008 TIME LEFT:  2.00D  GRAD.:     7.710 HEAT: -138.0552
 CYCLE:   285 TIME:   0.008 TIME LEFT:  2.00D  GRAD.:     7.198 HEAT: -138.0653
 CYCLE:   286 TIME:   0.008 TIME LEFT:  2.00D  GRAD.:     9.021 HEAT: -138.0798
 CYCLE:   287 TIME:   0.008 TIME LEFT:  2.00D  GRAD.:     4.455 HEAT: -138.0872
 CYCLE:   288 TIME:   0.008 TIME LEFT:  2.00D  GRAD.:     4.308 HEAT: -138.0922
 CYCLE:   289 TIME:   0.008 TIME LEFT:  2.00D  GRAD.:     6.866 HEAT: -138.0971
 CYCLE:   290 TIME:   0.008 TIME LEFT:  2.00D  GRAD.:     4.339 HEAT: -138.1093
 CYCLE:   291 TIME:   0.008 TIME LEFT:  2.00D  GRAD.:     6.131 HEAT: -138.1163
 CYCLE:   292 TIME:   0.008 TIME LEFT:  2.00D  GRAD.:     4.492 HEAT: -138.1311
 CYCLE:   293 TIME:   0.008 TIME LEFT:  2.00D  GRAD.:     7.394 HEAT: -138.1550
 CYCLE:   294 TIME:   0.008 TIME LEFT:  2.00D  GRAD.:     7.489 HEAT: -138.1836
 CYCLE:   295 TIME:   0.008 TIME LEFT:  2.00D  GRAD.:     8.291 HEAT: -138.2111
 CYCLE:   296 TIME:   0.008 TIME LEFT:  2.00D  GRAD.:     5.940 HEAT: -138.2738
 CYCLE:   297 TIME:   0.012 TIME LEFT:  2.00D  GRAD.:     8.000 HEAT: -138.3168
 CYCLE:   298 TIME:   0.020 TIME LEFT:  2.00D  GRAD.:     9.305 HEAT: -138.3345
 CYCLE:   299 TIME:   0.008 TIME LEFT:  2.00D  GRAD.:     8.421 HEAT: -138.3448
 CYCLE:   300 TIME:   0.008 TIME LEFT:  2.00D  GRAD.:     4.844 HEAT: -138.3635
 CYCLE:   301 TIME:   0.008 TIME LEFT:  2.00D  GRAD.:     4.156 HEAT: -138.3730
 CYCLE:   302 TIME:   0.008 TIME LEFT:  2.00D  GRAD.:     3.533 HEAT: -138.3887
 CYCLE:   303 TIME:   0.008 TIME LEFT:  2.00D  GRAD.:     3.711 HEAT: -138.4140
 CYCLE:   304 TIME:   0.008 TIME LEFT:  2.00D  GRAD.:     5.866 HEAT: -138.4447
 CYCLE:   305 TIME:   0.008 TIME LEFT:  2.00D  GRAD.:     9.622 HEAT: -138.4593
 CYCLE:   306 TIME:   0.008 TIME LEFT:  2.00D  GRAD.:     6.172 HEAT: -138.4744
 CYCLE:   307 TIME:   0.008 TIME LEFT:  2.00D  GRAD.:     6.751 HEAT: -138.4903
 CYCLE:   308 TIME:   0.008 TIME LEFT:  2.00D  GRAD.:     7.339 HEAT: -138.5157
 CYCLE:   309 TIME:   0.008 TIME LEFT:  2.00D  GRAD.:    10.872 HEAT: -138.5351
 CYCLE:   310 TIME:   0.008 TIME LEFT:  2.00D  GRAD.:     7.671 HEAT: -138.5738
 CYCLE:   311 TIME:   0.008 TIME LEFT:  2.00D  GRAD.:     8.084 HEAT: -138.6076
 CYCLE:   312 TIME:   0.008 TIME LEFT:  2.00D  GRAD.:    12.942 HEAT: -138.6576
 CYCLE:   313 TIME:   0.012 TIME LEFT:  2.00D  GRAD.:     5.691 HEAT: -138.7145
 CYCLE:   314 TIME:   0.008 TIME LEFT:  2.00D  GRAD.:    17.370 HEAT: -138.7312
 CYCLE:   315 TIME:   0.008 TIME LEFT:  2.00D  GRAD.:     8.803 HEAT: -138.7881
 CYCLE:   316 TIME:   0.008 TIME LEFT:  2.00D  GRAD.:     9.965 HEAT: -138.8297
 CYCLE:   317 TIME:   0.008 TIME LEFT:  2.00D  GRAD.:    11.157 HEAT: -138.8741
 CYCLE:   318 TIME:   0.008 TIME LEFT:  2.00D  GRAD.:    11.004 HEAT: -138.9086
 CYCLE:   319 TIME:   0.008 TIME LEFT:  2.00D  GRAD.:     9.824 HEAT: -138.9577
 CYCLE:   320 TIME:   0.008 TIME LEFT:  2.00D  GRAD.:    11.318 HEAT: -139.0088
 CYCLE:   321 TIME:   0.008 TIME LEFT:  2.00D  GRAD.:    12.826 HEAT: -139.0568
 CYCLE:   322 TIME:   0.027 TIME LEFT:  2.00D  GRAD.:    21.697 HEAT: -139.0631
 CYCLE:   323 TIME:   0.008 TIME LEFT:  2.00D  GRAD.:     7.716 HEAT: -139.1206
 CYCLE:   324 TIME:   0.008 TIME LEFT:  2.00D  GRAD.:     6.772 HEAT: -139.1409
 CYCLE:   325 TIME:   0.004 TIME LEFT:  2.00D  GRAD.:     3.501 HEAT: -139.1618
 CYCLE:   326 TIME:   0.008 TIME LEFT:  2.00D  GRAD.:     2.646 HEAT: -139.1939
 CYCLE:   327 TIME:   0.004 TIME LEFT:  2.00D  GRAD.:     4.416 HEAT: -139.2382
 CYCLE:   328 TIME:   0.008 TIME LEFT:  2.00D  GRAD.:    11.965 HEAT: -139.3035
 CYCLE:   329 TIME:   0.008 TIME LEFT:  2.00D  GRAD.:    12.527 HEAT: -139.3673
 CYCLE:   330 TIME:   0.008 TIME LEFT:  2.00D  GRAD.:    13.306 HEAT: -139.4436
 CYCLE:   331 TIME:   0.004 TIME LEFT:  2.00D  GRAD.:     8.128 HEAT: -139.5513
 CYCLE:   332 TIME:   0.008 TIME LEFT:  2.00D  GRAD.:    11.518 HEAT: -139.6291
 CYCLE:   333 TIME:   0.039 TIME LEFT:  2.00D  GRAD.:    16.398 HEAT: -139.6353
 CYCLE:   334 TIME:   0.008 TIME LEFT:  2.00D  GRAD.:     6.897 HEAT: -139.6649
 CYCLE:   335 TIME:   0.008 TIME LEFT:  2.00D  GRAD.:     5.790 HEAT: -139.6799
 CYCLE:   336 TIME:   0.008 TIME LEFT:  2.00D  GRAD.:     5.698 HEAT: -139.6981
 CYCLE:   337 TIME:   0.008 TIME LEFT:  2.00D  GRAD.:     6.402 HEAT: -139.7270
 CYCLE:   338 TIME:   0.008 TIME LEFT:  2.00D  GRAD.:     5.439 HEAT: -139.7614
 CYCLE:   339 TIME:   0.004 TIME LEFT:  2.00D  GRAD.:     4.723 HEAT: -139.8040
 CYCLE:   340 TIME:   0.008 TIME LEFT:  2.00D  GRAD.:     5.468 HEAT: -139.8645
 CYCLE:   341 TIME:   0.008 TIME LEFT:  2.00D  GRAD.:     9.663 HEAT: -139.9554
 CYCLE:   342 TIME:   0.012 TIME LEFT:  2.00D  GRAD.:     9.317 HEAT: -140.0528
 CYCLE:   343 TIME:   0.008 TIME LEFT:  2.00D  GRAD.:     9.861 HEAT: -140.1537
 CYCLE:   344 TIME:   0.008 TIME LEFT:  2.00D  GRAD.:    22.113 HEAT: -140.2409
 CYCLE:   345 TIME:   0.008 TIME LEFT:  2.00D  GRAD.:    18.415 HEAT: -140.3381
 CYCLE:   346 TIME:   0.004 TIME LEFT:  2.00D  GRAD.:    19.303 HEAT: -140.4440
 CYCLE:   347 TIME:   0.008 TIME LEFT:  2.00D  GRAD.:    19.277 HEAT: -140.4780
 CYCLE:   348 TIME:   0.012 TIME LEFT:  2.00D  GRAD.:    13.920 HEAT: -140.6044
 CYCLE:   349 TIME:   0.004 TIME LEFT:  2.00D  GRAD.:    18.738 HEAT: -140.6677
 CYCLE:   350 TIME:   0.012 TIME LEFT:  2.00D  GRAD.:    11.889 HEAT: -140.7457
 CYCLE:   351 TIME:   0.008 TIME LEFT:  2.00D  GRAD.:    10.530 HEAT: -140.8377
 CYCLE:   352 TIME:   0.012 TIME LEFT:  2.00D  GRAD.:    23.615 HEAT: -140.8695
 CYCLE:   353 TIME:   0.008 TIME LEFT:  2.00D  GRAD.:    12.452 HEAT: -140.9634
 CYCLE:   354 TIME:   0.008 TIME LEFT:  2.00D  GRAD.:    19.472 HEAT: -140.9769
 CYCLE:   355 TIME:   0.008 TIME LEFT:  2.00D  GRAD.:     8.617 HEAT: -141.1074
 CYCLE:   356 TIME:   0.004 TIME LEFT:  2.00D  GRAD.:    24.831 HEAT: -141.1581
 CYCLE:   357 TIME:   0.008 TIME LEFT:  2.00D  GRAD.:    15.144 HEAT: -141.2440
 CYCLE:   358 TIME:   0.012 TIME LEFT:  2.00D  GRAD.:    13.031 HEAT: -141.3431
 CYCLE:   359 TIME:   0.008 TIME LEFT:  2.00D  GRAD.:    10.225 HEAT: -141.4401
 CYCLE:   360 TIME:   0.008 TIME LEFT:  2.00D  GRAD.:    22.078 HEAT: -141.4501
 CYCLE:   361 TIME:   0.004 TIME LEFT:  2.00D  GRAD.:    15.316 HEAT: -141.5648
 CYCLE:   362 TIME:   0.008 TIME LEFT:  2.00D  GRAD.:    14.998 HEAT: -141.5848
 CYCLE:   363 TIME:   0.008 TIME LEFT:  2.00D  GRAD.:    12.452 HEAT: -141.6962
 CYCLE:   364 TIME:   0.008 TIME LEFT:  2.00D  GRAD.:    17.555 HEAT: -141.7591
 CYCLE:   365 TIME:   0.008 TIME LEFT:  2.00D  GRAD.:    14.894 HEAT: -141.8625
 CYCLE:   366 TIME:   0.008 TIME LEFT:  2.00D  GRAD.:    14.411 HEAT: -141.9603
 CYCLE:   367 TIME:   0.008 TIME LEFT:  2.00D  GRAD.:    18.635 HEAT: -142.0791
 CYCLE:   368 TIME:   0.020 TIME LEFT:  2.00D  GRAD.:    19.488 HEAT: -142.0802
 CYCLE:   369 TIME:   0.004 TIME LEFT:  2.00D  GRAD.:     9.250 HEAT: -142.2038
 CYCLE:   370 TIME:   0.008 TIME LEFT:  2.00D  GRAD.:    10.665 HEAT: -142.2651
 CYCLE:   371 TIME:   0.008 TIME LEFT:  2.00D  GRAD.:     8.749 HEAT: -142.3648
 CYCLE:   372 TIME:   0.008 TIME LEFT:  2.00D  GRAD.:     6.511 HEAT: -142.4902
 CYCLE:   373 TIME:   0.004 TIME LEFT:  2.00D  GRAD.:    12.060 HEAT: -142.6494
 CYCLE:   374 TIME:   0.008 TIME LEFT:  2.00D  GRAD.:    11.785 HEAT: -142.8112
 CYCLE:   375 TIME:   0.008 TIME LEFT:  2.00D  GRAD.:    13.117 HEAT: -142.9812
 CYCLE:   376 TIME:   0.023 TIME LEFT:  2.00D  GRAD.:    18.327 HEAT: -143.0022
 CYCLE:   377 TIME:   0.008 TIME LEFT:  2.00D  GRAD.:     8.093 HEAT: -143.0808
 CYCLE:   378 TIME:   0.008 TIME LEFT:  2.00D  GRAD.:     6.993 HEAT: -143.1350
 CYCLE:   379 TIME:   0.008 TIME LEFT:  2.00D  GRAD.:     5.578 HEAT: -143.2090
 CYCLE:   380 TIME:   0.008 TIME LEFT:  2.00D  GRAD.:     8.954 HEAT: -143.3432
 CYCLE:   381 TIME:   0.004 TIME LEFT:  2.00D  GRAD.:     8.870 HEAT: -143.5176
 CYCLE:   382 TIME:   0.008 TIME LEFT:  2.00D  GRAD.:     8.011 HEAT: -143.6960
 CYCLE:   383 TIME:   0.008 TIME LEFT:  2.00D  GRAD.:     8.903 HEAT: -143.8673
 CYCLE:   384 TIME:   0.008 TIME LEFT:  2.00D  GRAD.:    21.909 HEAT: -144.0027
 CYCLE:   385 TIME:   0.004 TIME LEFT:  2.00D  GRAD.:    11.416 HEAT: -144.1944
 CYCLE:   386 TIME:   0.008 TIME LEFT:  2.00D  GRAD.:    13.585 HEAT: -144.3635
 CYCLE:   387 TIME:   0.008 TIME LEFT:  2.00D  GRAD.:    12.545 HEAT: -144.5612
 CYCLE:   388 TIME:   0.004 TIME LEFT:  2.00D  GRAD.:    19.341 HEAT: -144.7870
 CYCLE:   389 TIME:   0.008 TIME LEFT:  2.00D  GRAD.:    10.728 HEAT: -145.0643
 CYCLE:   390 TIME:   0.008 TIME LEFT:  2.00D  GRAD.:     8.300 HEAT: -145.3132
 CYCLE:   391 TIME:   0.008 TIME LEFT:  2.00D  GRAD.:    18.492 HEAT: -145.5405
 CYCLE:   392 TIME:   0.008 TIME LEFT:  2.00D  GRAD.:    17.184 HEAT: -145.7929
 CYCLE:   393 TIME:   0.004 TIME LEFT:  2.00D  GRAD.:    18.304 HEAT: -146.0593
 CYCLE:   394 TIME:   0.008 TIME LEFT:  2.00D  GRAD.:    17.525 HEAT: -146.3353
 CYCLE:   395 TIME:   0.012 TIME LEFT:  2.00D  GRAD.:    10.524 HEAT: -146.6399
 CYCLE:   396 TIME:   0.008 TIME LEFT:  2.00D  GRAD.:    14.536 HEAT: -146.9227
 CYCLE:   397 TIME:   0.008 TIME LEFT:  2.00D  GRAD.:    18.746 HEAT: -147.1785
 CYCLE:   398 TIME:   0.008 TIME LEFT:  2.00D  GRAD.:    31.419 HEAT: -147.3494
 CYCLE:   399 TIME:   0.008 TIME LEFT:  2.00D  GRAD.:    26.345 HEAT: -147.7344
 CYCLE:   400 TIME:   0.004 TIME LEFT:  2.00D  GRAD.:    21.981 HEAT: -148.0312
 CYCLE:   401 TIME:   0.008 TIME LEFT:  2.00D  GRAD.:    27.602 HEAT: -148.3453
 CYCLE:   402 TIME:   0.027 TIME LEFT:  2.00D  GRAD.:    20.093 HEAT: -148.4047
 CYCLE:   403 TIME:   0.008 TIME LEFT:  2.00D  GRAD.:     7.765 HEAT: -148.5362
 CYCLE:   404 TIME:   0.004 TIME LEFT:  2.00D  GRAD.:     7.951 HEAT: -148.6154
 CYCLE:   405 TIME:   0.008 TIME LEFT:  2.00D  GRAD.:    10.974 HEAT: -148.7288
 CYCLE:   406 TIME:   0.008 TIME LEFT:  2.00D  GRAD.:    12.646 HEAT: -148.9469
 CYCLE:   407 TIME:   0.008 TIME LEFT:  2.00D  GRAD.:    10.638 HEAT: -149.1284
 CYCLE:   408 TIME:   0.004 TIME LEFT:  2.00D  GRAD.:    11.968 HEAT: -149.5791
 CYCLE:   409 TIME:   0.012 TIME LEFT:  2.00D  GRAD.:    22.980 HEAT: -149.9126
 CYCLE:   410 TIME:   0.004 TIME LEFT:  2.00D  GRAD.:    18.084 HEAT: -150.2498
 CYCLE:   411 TIME:   0.008 TIME LEFT:  2.00D  GRAD.:    13.994 HEAT: -150.6972
 CYCLE:   412 TIME:   0.008 TIME LEFT:  2.00D  GRAD.:    22.190 HEAT: -151.1094
 CYCLE:   413 TIME:   0.004 TIME LEFT:  2.00D  GRAD.:    24.688 HEAT: -151.5753
 CYCLE:   414 TIME:   0.008 TIME LEFT:  2.00D  GRAD.:    26.348 HEAT: -152.2455
 CYCLE:   415 TIME:   0.008 TIME LEFT:  2.00D  GRAD.:    16.334 HEAT: -152.8228
 CYCLE:   416 TIME:   0.004 TIME LEFT:  2.00D  GRAD.:    16.593 HEAT: -153.3411
 CYCLE:   417 TIME:   0.008 TIME LEFT:  2.00D  GRAD.:    20.431 HEAT: -153.8836
 CYCLE:   418 TIME:   0.008 TIME LEFT:  2.00D  GRAD.:    14.398 HEAT: -153.9382
 CYCLE:   419 TIME:   0.008 TIME LEFT:  2.00D  GRAD.:     9.217 HEAT: -154.0148
 CYCLE:   420 TIME:   0.004 TIME LEFT:  2.00D  GRAD.:     9.506 HEAT: -154.0373
 CYCLE:   421 TIME:   0.008 TIME LEFT:  2.00D  GRAD.:     8.563 HEAT: -154.0668
 CYCLE:   422 TIME:   0.016 TIME LEFT:  2.00D  GRAD.:     7.027 HEAT: -154.2541
 CYCLE:   423 TIME:   0.004 TIME LEFT:  2.00D  GRAD.:     7.356 HEAT: -154.2736
 CYCLE:   424 TIME:   0.008 TIME LEFT:  2.00D  GRAD.:     7.611 HEAT: -154.2999
 CYCLE:   425 TIME:   0.008 TIME LEFT:  2.00D  GRAD.:     6.435 HEAT: -154.3213
 CYCLE:   426 TIME:   0.004 TIME LEFT:  2.00D  GRAD.:     6.661 HEAT: -154.3378
 CYCLE:   427 TIME:   0.008 TIME LEFT:  2.00D  GRAD.:     6.226 HEAT: -154.3523
 CYCLE:   428 TIME:   0.008 TIME LEFT:  2.00D  GRAD.:     4.907 HEAT: -154.3740
 CYCLE:   429 TIME:   0.008 TIME LEFT:  2.00D  GRAD.:     4.629 HEAT: -154.3971
 CYCLE:   430 TIME:   0.008 TIME LEFT:  2.00D  GRAD.:     4.102 HEAT: -154.4073
 CYCLE:   431 TIME:   0.004 TIME LEFT:  2.00D  GRAD.:     3.383 HEAT: -154.4177
 CYCLE:   432 TIME:   0.008 TIME LEFT:  2.00D  GRAD.:     2.977 HEAT: -154.4251
 CYCLE:   433 TIME:   0.008 TIME LEFT:  2.00D  GRAD.:     2.515 HEAT: -154.4279
 CYCLE:   434 TIME:   0.008 TIME LEFT:  2.00D  GRAD.:     2.119 HEAT: -154.4304
 CYCLE:   435 TIME:   0.008 TIME LEFT:  2.00D  GRAD.:     1.850 HEAT: -154.4317
 CYCLE:   436 TIME:   0.008 TIME LEFT:  2.00D  GRAD.:     2.130 HEAT: -154.4338
 CYCLE:   437 TIME:   0.004 TIME LEFT:  2.00D  GRAD.:     2.662 HEAT: -154.4353
 CYCLE:   438 TIME:   0.008 TIME LEFT:  2.00D  GRAD.:     1.903 HEAT: -154.4400
 CYCLE:   439 TIME:   0.008 TIME LEFT:  2.00D  GRAD.:     2.296 HEAT: -154.5986
 CYCLE:   440 TIME:   0.008 TIME LEFT:  2.00D  GRAD.:     2.345 HEAT: -154.5992
 CYCLE:   441 TIME:   0.008 TIME LEFT:  2.00D  GRAD.:     3.368 HEAT: -154.6010
 CYCLE:   442 TIME:   0.004 TIME LEFT:  2.00D  GRAD.:     4.622 HEAT: -154.6048
 CYCLE:   443 TIME:   0.012 TIME LEFT:  2.00D  GRAD.:     2.281 HEAT: -154.6187
 CYCLE:   444 TIME:   0.012 TIME LEFT:  2.00D  GRAD.:     2.956 HEAT: -154.7740
 CYCLE:   445 TIME:   0.012 TIME LEFT:  2.00D  GRAD.:     6.074 HEAT: -154.7717
 CYCLE:   446 TIME:   0.004 TIME LEFT:  2.00D  GRAD.:     5.442 HEAT: -154.7765
 CYCLE:   447 TIME:   0.008 TIME LEFT:  2.00D  GRAD.:     4.318 HEAT: -154.7817
 CYCLE:   448 TIME:   0.008 TIME LEFT:  2.00D  GRAD.:     3.821 HEAT: -154.7850
 CYCLE:   449 TIME:   0.008 TIME LEFT:  2.00D  GRAD.:     3.357 HEAT: -154.7908
 CYCLE:   450 TIME:   0.004 TIME LEFT:  2.00D  GRAD.:     3.117 HEAT: -154.7941
 CYCLE:   451 TIME:   0.016 TIME LEFT:  2.00D  GRAD.:     4.926 HEAT: -155.0118
 CYCLE:   452 TIME:   0.004 TIME LEFT:  2.00D  GRAD.:     4.939 HEAT: -155.0202
 CYCLE:   453 TIME:   0.035 TIME LEFT:  2.00D  GRAD.:     6.161 HEAT: -155.0251
 CYCLE:   454 TIME:   0.008 TIME LEFT:  2.00D  GRAD.:     3.604 HEAT: -155.0381
 CYCLE:   455 TIME:   0.008 TIME LEFT:  2.00D  GRAD.:     2.881 HEAT: -155.0552
 CYCLE:   456 TIME:   0.008 TIME LEFT:  2.00D  GRAD.:     2.268 HEAT: -155.1036
 CYCLE:   457 TIME:   0.008 TIME LEFT:  2.00D  GRAD.:     2.070 HEAT: -155.1491
 CYCLE:   458 TIME:   0.004 TIME LEFT:  2.00D  GRAD.:     2.672 HEAT: -155.1636
 CYCLE:   459 TIME:   0.008 TIME LEFT:  2.00D  GRAD.:     4.592 HEAT: -155.1674
 CYCLE:   460 TIME:   0.008 TIME LEFT:  2.00D  GRAD.:     3.562 HEAT: -155.1715
 CYCLE:   461 TIME:   0.008 TIME LEFT:  2.00D  GRAD.:     2.436 HEAT: -155.1775
 CYCLE:   462 TIME:   0.008 TIME LEFT:  2.00D  GRAD.:     1.941 HEAT: -155.1786
 CYCLE:   463 TIME:   0.008 TIME LEFT:  2.00D  GRAD.:     2.310 HEAT: -155.1858
 CYCLE:   464 TIME:   0.004 TIME LEFT:  2.00D  GRAD.:     2.040 HEAT: -155.1867
 CYCLE:   465 TIME:   0.008 TIME LEFT:  2.00D  GRAD.:     1.898 HEAT: -155.1872
 CYCLE:   466 TIME:   0.008 TIME LEFT:  2.00D  GRAD.:     8.290 HEAT: -155.1773
 CYCLE:   467 TIME:   0.008 TIME LEFT:  2.00D  GRAD.:     3.267 HEAT: -155.2207
 CYCLE:   468 TIME:   0.008 TIME LEFT:  2.00D  GRAD.:     2.988 HEAT: -155.2439
 CYCLE:   469 TIME:   0.008 TIME LEFT:  2.00D  GRAD.:     4.727 HEAT: -155.2618
 CYCLE:   470 TIME:   0.008 TIME LEFT:  2.00D  GRAD.:     2.946 HEAT: -155.2951
 CYCLE:   471 TIME:   0.004 TIME LEFT:  2.00D  GRAD.:     2.124 HEAT: -155.3380
 CYCLE:   472 TIME:   0.008 TIME LEFT:  2.00D  GRAD.:     2.543 HEAT: -155.3605
 CYCLE:   473 TIME:   0.008 TIME LEFT:  2.00D  GRAD.:     2.106 HEAT: -155.3655
 CYCLE:   474 TIME:   0.008 TIME LEFT:  2.00D  GRAD.:     4.045 HEAT: -155.3732
 CYCLE:   475 TIME:   0.004 TIME LEFT:  2.00D  GRAD.:     1.792 HEAT: -155.3904
 CYCLE:   476 TIME:   0.008 TIME LEFT:  2.00D  GRAD.:     1.784 HEAT: -155.3912
 CYCLE:   477 TIME:   0.008 TIME LEFT:  2.00D  GRAD.:     2.334 HEAT: -155.3969
 CYCLE:   478 TIME:   0.008 TIME LEFT:  2.00D  GRAD.:     1.841 HEAT: -155.4127
 CYCLE:   479 TIME:   0.008 TIME LEFT:  2.00D  GRAD.:     1.637 HEAT: -155.4135
 CYCLE:   480 TIME:   0.008 TIME LEFT:  2.00D  GRAD.:     2.102 HEAT: -155.4148
 CYCLE:   481 TIME:   0.008 TIME LEFT:  2.00D  GRAD.:     3.254 HEAT: -155.4191
 CYCLE:   482 TIME:   0.008 TIME LEFT:  2.00D  GRAD.:     1.849 HEAT: -155.4351
 CYCLE:   483 TIME:   0.008 TIME LEFT:  2.00D  GRAD.:     1.905 HEAT: -155.4366
 CYCLE:   484 TIME:   0.012 TIME LEFT:  2.00D  GRAD.:     4.978 HEAT: -155.4835
 CYCLE:   485 TIME:   0.008 TIME LEFT:  2.00D  GRAD.:     1.590 HEAT: -155.5570
 CYCLE:   486 TIME:   0.008 TIME LEFT:  2.00D  GRAD.:     1.586 HEAT: -155.5571
 CYCLE:   487 TIME:   0.004 TIME LEFT:  2.00D  GRAD.:     2.032 HEAT: -155.5601
 CYCLE:   488 TIME:   0.016 TIME LEFT:  2.00D  GRAD.:     2.442 HEAT: -155.5705
 CYCLE:   489 TIME:   0.012 TIME LEFT:  2.00D  GRAD.:     1.580 HEAT: -155.6004
 CYCLE:   490 TIME:   0.008 TIME LEFT:  2.00D  GRAD.:     1.787 HEAT: -155.6026
 CYCLE:   491 TIME:   0.012 TIME LEFT:  2.00D  GRAD.:    11.447 HEAT: -155.6355
 CYCLE:   492 TIME:   0.008 TIME LEFT:  2.00D  GRAD.:     2.360 HEAT: -155.8178
 CYCLE:   493 TIME:   0.012 TIME LEFT:  2.00D  GRAD.:     1.664 HEAT: -155.8378
 CYCLE:   494 TIME:   0.008 TIME LEFT:  2.00D  GRAD.:     1.895 HEAT: -155.8427
 CYCLE:   495 TIME:   0.008 TIME LEFT:  2.00D  GRAD.:     1.763 HEAT: -155.8458
 CYCLE:   496 TIME:   0.012 TIME LEFT:  2.00D  GRAD.:     1.797 HEAT: -155.8478
 CYCLE:   497 TIME:   0.023 TIME LEFT:  2.00D  GRAD.:     1.968 HEAT: -155.8575
 CYCLE:   498 TIME:   0.012 TIME LEFT:  2.00D  GRAD.:     2.219 HEAT: -155.8824
 CYCLE:   499 TIME:   0.008 TIME LEFT:  2.00D  GRAD.:     1.959 HEAT: -155.8872
 CYCLE:   500 TIME:   0.012 TIME LEFT:  2.00D  GRAD.:     2.061 HEAT: -155.8892
 CYCLE:   501 TIME:   0.012 TIME LEFT:  2.00D  GRAD.:     1.907 HEAT: -155.9049
 CYCLE:   502 TIME:   0.008 TIME LEFT:  2.00D  GRAD.:     2.129 HEAT: -155.9183
 CYCLE:   503 TIME:   0.008 TIME LEFT:  2.00D  GRAD.:     2.060 HEAT: -155.9221
 CYCLE:   504 TIME:   0.008 TIME LEFT:  2.00D  GRAD.:     5.220 HEAT: -155.9336
 CYCLE:   505 TIME:   0.008 TIME LEFT:  2.00D  GRAD.:     2.061 HEAT: -156.0148
 CYCLE:   506 TIME:   0.008 TIME LEFT:  2.00D  GRAD.:     1.850 HEAT: -156.0126
 CYCLE:   507 TIME:   0.012 TIME LEFT:  2.00D  GRAD.:     2.388 HEAT: -156.0258
 CYCLE:   508 TIME:   0.008 TIME LEFT:  2.00D  GRAD.:     1.862 HEAT: -156.0338
 CYCLE:   509 TIME:   0.008 TIME LEFT:  2.00D  GRAD.:     1.923 HEAT: -156.0370
 CYCLE:   510 TIME:   0.008 TIME LEFT:  2.00D  GRAD.:     3.757 HEAT: -156.0380
 CYCLE:   511 TIME:   0.008 TIME LEFT:  2.00D  GRAD.:     2.098 HEAT: -156.0885
 CYCLE:   512 TIME:   0.004 TIME LEFT:  2.00D  GRAD.:     2.033 HEAT: -156.0898
 CYCLE:   513 TIME:   0.020 TIME LEFT:  2.00D  GRAD.:     5.332 HEAT: -156.0807
 CYCLE:   514 TIME:   0.008 TIME LEFT:  2.00D  GRAD.:     1.982 HEAT: -156.1007
 CYCLE:   515 TIME:   0.016 TIME LEFT:  2.00D  GRAD.:     2.445 HEAT: -156.1073
 CYCLE:   516 TIME:   0.012 TIME LEFT:  2.00D  GRAD.:     4.297 HEAT: -156.1109
 CYCLE:   517 TIME:   0.008 TIME LEFT:  2.00D  GRAD.:     1.741 HEAT: -156.1193
 CYCLE:   518 TIME:   0.008 TIME LEFT:  2.00D  GRAD.:     1.733 HEAT: -156.1212
 CYCLE:   519 TIME:   0.008 TIME LEFT:  2.00D  GRAD.:     1.682 HEAT: -156.1280
 CYCLE:   520 TIME:   0.008 TIME LEFT:  2.00D  GRAD.:     1.847 HEAT: -156.1328
 CYCLE:   521 TIME:   0.008 TIME LEFT:  2.00D  GRAD.:     1.585 HEAT: -156.1371
 CYCLE:   522 TIME:   0.008 TIME LEFT:  2.00D  GRAD.:     1.775 HEAT: -156.1419
 CYCLE:   523 TIME:   0.008 TIME LEFT:  2.00D  GRAD.:     1.610 HEAT: -156.1425
 CYCLE:   524 TIME:   0.008 TIME LEFT:  2.00D  GRAD.:     2.112 HEAT: -156.1522
 CYCLE:   525 TIME:   0.008 TIME LEFT:  2.00D  GRAD.:     1.886 HEAT: -156.1586
 CYCLE:   526 TIME:   0.004 TIME LEFT:  2.00D  GRAD.:     2.168 HEAT: -156.1671
 CYCLE:   527 TIME:   0.008 TIME LEFT:  2.00D  GRAD.:     1.729 HEAT: -156.1891
 CYCLE:   528 TIME:   0.008 TIME LEFT:  2.00D  GRAD.:     1.496 HEAT: -156.1894
 CYCLE:   529 TIME:   0.008 TIME LEFT:  2.00D  GRAD.:     1.640 HEAT: -156.1894
 CYCLE:   530 TIME:   0.008 TIME LEFT:  2.00D  GRAD.:     1.920 HEAT: -156.2040
 CYCLE:   531 TIME:   0.008 TIME LEFT:  2.00D  GRAD.:     1.475 HEAT: -156.2047
 CYCLE:   532 TIME:   0.008 TIME LEFT:  2.00D  GRAD.:     4.317 HEAT: -156.2164
 CYCLE:   533 TIME:   0.004 TIME LEFT:  2.00D  GRAD.:     2.260 HEAT: -156.2186
 CYCLE:   534 TIME:   0.012 TIME LEFT:  2.00D  GRAD.:    23.153 HEAT: -156.2931
 CYCLE:   535 TIME:   0.008 TIME LEFT:  2.00D  GRAD.:     3.530 HEAT: -156.4883
 CYCLE:   536 TIME:   0.008 TIME LEFT:  2.00D  GRAD.:     2.040 HEAT: -156.4937
 CYCLE:   537 TIME:   0.008 TIME LEFT:  2.00D  GRAD.:     7.741 HEAT: -156.5074
 CYCLE:   538 TIME:   0.004 TIME LEFT:  2.00D  GRAD.:     1.630 HEAT: -156.5421
 CYCLE:   539 TIME:   0.008 TIME LEFT:  2.00D  GRAD.:     1.930 HEAT: -156.5446
 CYCLE:   540 TIME:   0.012 TIME LEFT:  2.00D  GRAD.:     1.534 HEAT: -156.5471
 CYCLE:   541 TIME:   0.004 TIME LEFT:  2.00D  GRAD.:     1.753 HEAT: -156.5492
 CYCLE:   542 TIME:   0.008 TIME LEFT:  2.00D  GRAD.:     1.647 HEAT: -156.5531
 CYCLE:   543 TIME:   0.012 TIME LEFT:  2.00D  GRAD.:     1.522 HEAT: -156.5574
 CYCLE:   544 TIME:   0.008 TIME LEFT:  2.00D  GRAD.:     1.533 HEAT: -156.5582
 CYCLE:   545 TIME:   0.008 TIME LEFT:  2.00D  GRAD.:     1.994 HEAT: -156.5605
 CYCLE:   546 TIME:   0.008 TIME LEFT:  2.00D  GRAD.:     1.526 HEAT: -156.5656
 CYCLE:   547 TIME:   0.004 TIME LEFT:  2.00D  GRAD.:     1.542 HEAT: -156.5679
 CYCLE:   548 TIME:   0.008 TIME LEFT:  2.00D  GRAD.:     1.517 HEAT: -156.5680
 CYCLE:   549 TIME:   0.008 TIME LEFT:  2.00D  GRAD.:     1.589 HEAT: -156.5705
 CYCLE:   550 TIME:   0.016 TIME LEFT:  2.00D  GRAD.:     3.260 HEAT: -156.5717
 CYCLE:   551 TIME:   0.004 TIME LEFT:  2.00D  GRAD.:     1.552 HEAT: -156.5972
 CYCLE:   552 TIME:   0.016 TIME LEFT:  2.00D  GRAD.:     2.441 HEAT: -156.5967
 CYCLE:   553 TIME:   0.008 TIME LEFT:  2.00D  GRAD.:     1.758 HEAT: -156.6233
 CYCLE:   554 TIME:   0.008 TIME LEFT:  2.00D  GRAD.:     3.170 HEAT: -156.6959
 CYCLE:   555 TIME:   0.008 TIME LEFT:  2.00D  GRAD.:     2.619 HEAT: -156.7571
 CYCLE:   556 TIME:   0.008 TIME LEFT:  2.00D  GRAD.:     2.876 HEAT: -156.7921
 CYCLE:   557 TIME:   0.008 TIME LEFT:  2.00D  GRAD.:     1.661 HEAT: -156.8101
 CYCLE:   558 TIME:   0.008 TIME LEFT:  2.00D  GRAD.:     2.809 HEAT: -156.8504
 CYCLE:   559 TIME:   0.008 TIME LEFT:  2.00D  GRAD.:     2.012 HEAT: -156.8587
 CYCLE:   560 TIME:   0.008 TIME LEFT:  2.00D  GRAD.:     4.150 HEAT: -156.8840
 CYCLE:   561 TIME:   0.008 TIME LEFT:  2.00D  GRAD.:     2.098 HEAT: -156.9053
 CYCLE:   562 TIME:   0.012 TIME LEFT:  2.00D  GRAD.:     2.241 HEAT: -156.9115
 CYCLE:   563 TIME:   0.008 TIME LEFT:  2.00D  GRAD.:     5.273 HEAT: -156.9202
 CYCLE:   564 TIME:   0.008 TIME LEFT:  2.00D  GRAD.:     2.144 HEAT: -156.9382
 CYCLE:   565 TIME:   0.012 TIME LEFT:  2.00D  GRAD.:     1.895 HEAT: -156.9488
 CYCLE:   566 TIME:   0.004 TIME LEFT:  2.00D  GRAD.:     2.023 HEAT: -156.9568
 CYCLE:   567 TIME:   0.008 TIME LEFT:  2.00D  GRAD.:     1.809 HEAT: -156.9594
 CYCLE:   568 TIME:   0.012 TIME LEFT:  2.00D  GRAD.:     6.513 HEAT: -156.9762
 CYCLE:   569 TIME:   0.016 TIME LEFT:  2.00D  GRAD.:     2.398 HEAT: -157.0465
 CYCLE:   570 TIME:   0.008 TIME LEFT:  2.00D  GRAD.:     1.931 HEAT: -157.0475
 CYCLE:   571 TIME:   0.012 TIME LEFT:  2.00D  GRAD.:    12.867 HEAT: -157.3815
 CYCLE:   572 TIME:   0.012 TIME LEFT:  2.00D  GRAD.:     4.680 HEAT: -157.4545
 CYCLE:   573 TIME:   0.012 TIME LEFT:  2.00D  GRAD.:     3.736 HEAT: -157.4656
 CYCLE:   574 TIME:   0.008 TIME LEFT:  2.00D  GRAD.:     7.894 HEAT: -157.9040
 CYCLE:   575 TIME:   0.008 TIME LEFT:  2.00D  GRAD.:     6.118 HEAT: -157.9939
 CYCLE:   576 TIME:   0.008 TIME LEFT:  2.00D  GRAD.:     5.966 HEAT: -158.0753
 CYCLE:   577 TIME:   0.008 TIME LEFT:  2.00D  GRAD.:     3.330 HEAT: -158.1117
 CYCLE:   578 TIME:   0.008 TIME LEFT:  2.00D  GRAD.:     5.304 HEAT: -158.1806
 CYCLE:   579 TIME:   0.008 TIME LEFT:  2.00D  GRAD.:     3.106 HEAT: -158.1925
 CYCLE:   580 TIME:   0.008 TIME LEFT:  2.00D  GRAD.:     8.394 HEAT: -158.2606
 CYCLE:   581 TIME:   0.008 TIME LEFT:  2.00D  GRAD.:     3.357 HEAT: -158.2709
 CYCLE:   582 TIME:   0.008 TIME LEFT:  2.00D  GRAD.:     6.868 HEAT: -158.3010
 CYCLE:   583 TIME:   0.004 TIME LEFT:  2.00D  GRAD.:     4.321 HEAT: -158.3069
 CYCLE:   584 TIME:   0.012 TIME LEFT:  2.00D  GRAD.:    11.455 HEAT: -158.3308
 CYCLE:   585 TIME:   0.004 TIME LEFT:  2.00D  GRAD.:     3.859 HEAT: -158.3683
 CYCLE:   586 TIME:   0.008 TIME LEFT:  2.00D  GRAD.:     4.190 HEAT: -158.3796
 CYCLE:   587 TIME:   0.008 TIME LEFT:  2.00D  GRAD.:    13.127 HEAT: -158.4441
 CYCLE:   588 TIME:   0.008 TIME LEFT:  2.00D  GRAD.:    14.619 HEAT: -158.7279
 CYCLE:   589 TIME:   0.008 TIME LEFT:  2.00D  GRAD.:     3.256 HEAT: -158.8996
 CYCLE:   590 TIME:   0.008 TIME LEFT:  2.00D  GRAD.:     4.397 HEAT: -158.9154
 CYCLE:   591 TIME:   0.008 TIME LEFT:  2.00D  GRAD.:     2.452 HEAT: -158.9193
 CYCLE:   592 TIME:   0.008 TIME LEFT:  2.00D  GRAD.:     2.310 HEAT: -158.9219
 CYCLE:   593 TIME:   0.008 TIME LEFT:  2.00D  GRAD.:     2.548 HEAT: -158.9226
 CYCLE:   594 TIME:   0.008 TIME LEFT:  2.00D  GRAD.:     4.642 HEAT: -158.9337
 CYCLE:   595 TIME:   0.008 TIME LEFT:  2.00D  GRAD.:     3.237 HEAT: -158.9415
 CYCLE:   596 TIME:   0.008 TIME LEFT:  2.00D  GRAD.:     9.230 HEAT: -159.0002
 CYCLE:   597 TIME:   0.008 TIME LEFT:  2.00D  GRAD.:     8.371 HEAT: -159.0208
 CYCLE:   598 TIME:   0.008 TIME LEFT:  2.00D  GRAD.:     3.740 HEAT: -159.2613
 CYCLE:   599 TIME:   0.008 TIME LEFT:  2.00D  GRAD.:     7.884 HEAT: -159.2743
 CYCLE:   600 TIME:   0.008 TIME LEFT:  2.00D  GRAD.:     6.439 HEAT: -159.2985
 CYCLE:   601 TIME:   0.008 TIME LEFT:  2.00D  GRAD.:     4.727 HEAT: -159.5385
 CYCLE:   602 TIME:   0.008 TIME LEFT:  2.00D  GRAD.:     9.354 HEAT: -159.5854
 CYCLE:   603 TIME:   0.012 TIME LEFT:  2.00D  GRAD.:     3.662 HEAT: -159.6081
 CYCLE:   604 TIME:   0.012 TIME LEFT:  2.00D  GRAD.:     6.545 HEAT: -159.7740
 CYCLE:   605 TIME:   0.008 TIME LEFT:  2.00D  GRAD.:     6.014 HEAT: -159.8888
 CYCLE:   606 TIME:   0.008 TIME LEFT:  2.00D  GRAD.:     7.481 HEAT: -160.0188
 CYCLE:   607 TIME:   0.008 TIME LEFT:  2.00D  GRAD.:     3.157 HEAT: -160.0761
 CYCLE:   608 TIME:   0.008 TIME LEFT:  2.00D  GRAD.:     5.740 HEAT: -160.3331
 CYCLE:   609 TIME:   0.008 TIME LEFT:  2.00D  GRAD.:     9.381 HEAT: -160.4247
 CYCLE:   610 TIME:   0.008 TIME LEFT:  2.00D  GRAD.:     7.857 HEAT: -160.4791
 CYCLE:   611 TIME:   0.008 TIME LEFT:  2.00D  GRAD.:     4.742 HEAT: -160.7733
 CYCLE:   612 TIME:   0.008 TIME LEFT:  2.00D  GRAD.:     6.915 HEAT: -160.8504
 CYCLE:   613 TIME:   0.008 TIME LEFT:  2.00D  GRAD.:     7.032 HEAT: -160.8767
 CYCLE:   614 TIME:   0.008 TIME LEFT:  2.00D  GRAD.:     4.166 HEAT: -160.8917
 CYCLE:   615 TIME:   0.008 TIME LEFT:  2.00D  GRAD.:     4.182 HEAT: -160.9088
 CYCLE:   616 TIME:   0.004 TIME LEFT:  2.00D  GRAD.:    13.475 HEAT: -161.0223
 CYCLE:   617 TIME:   0.008 TIME LEFT:  2.00D  GRAD.:     4.632 HEAT: -161.2863
 CYCLE:   618 TIME:   0.008 TIME LEFT:  2.00D  GRAD.:     4.170 HEAT: -161.3138
 CYCLE:   619 TIME:   0.008 TIME LEFT:  2.00D  GRAD.:     3.672 HEAT: -161.4539
 CYCLE:   620 TIME:   0.012 TIME LEFT:  2.00D  GRAD.:     5.094 HEAT: -161.5967
 CYCLE:   621 TIME:   0.008 TIME LEFT:  2.00D  GRAD.:     3.799 HEAT: -161.6979
 CYCLE:   622 TIME:   0.004 TIME LEFT:  2.00D  GRAD.:     3.605 HEAT: -161.8120
 CYCLE:   623 TIME:   0.008 TIME LEFT:  2.00D  GRAD.:     3.376 HEAT: -161.9544
 CYCLE:   624 TIME:   0.008 TIME LEFT:  2.00D  GRAD.:     5.146 HEAT: -162.0947
 CYCLE:   625 TIME:   0.008 TIME LEFT:  2.00D  GRAD.:     3.708 HEAT: -162.1665
 CYCLE:   626 TIME:   0.008 TIME LEFT:  2.00D  GRAD.:     3.801 HEAT: -162.3004
 CYCLE:   627 TIME:   0.008 TIME LEFT:  2.00D  GRAD.:     5.311 HEAT: -162.5092
 CYCLE:   628 TIME:   0.008 TIME LEFT:  2.00D  GRAD.:     4.517 HEAT: -162.6190
 CYCLE:   629 TIME:   0.004 TIME LEFT:  2.00D  GRAD.:     5.273 HEAT: -162.7246
 CYCLE:   630 TIME:   0.012 TIME LEFT:  2.00D  GRAD.:     5.960 HEAT: -162.8621
 CYCLE:   631 TIME:   0.008 TIME LEFT:  2.00D  GRAD.:     4.113 HEAT: -162.8790
 CYCLE:   632 TIME:   0.008 TIME LEFT:  2.00D  GRAD.:     7.289 HEAT: -163.2279
 CYCLE:   633 TIME:   0.008 TIME LEFT:  2.00D  GRAD.:     6.420 HEAT: -163.3511
 CYCLE:   634 TIME:   0.008 TIME LEFT:  2.00D  GRAD.:     7.028 HEAT: -163.6741
 CYCLE:   635 TIME:   0.008 TIME LEFT:  2.00D  GRAD.:     5.845 HEAT: -163.9284
 CYCLE:   636 TIME:   0.008 TIME LEFT:  2.00D  GRAD.:     9.934 HEAT: -164.1099
 CYCLE:   637 TIME:   0.020 TIME LEFT:  2.00D  GRAD.:    10.406 HEAT: -164.1148
 CYCLE:   638 TIME:   0.008 TIME LEFT:  2.00D  GRAD.:     5.065 HEAT: -164.1551
 CYCLE:   639 TIME:   0.008 TIME LEFT:  2.00D  GRAD.:     5.003 HEAT: -164.2028
 CYCLE:   640 TIME:   0.012 TIME LEFT:  2.00D  GRAD.:     9.677 HEAT: -164.2186
 CYCLE:   641 TIME:   0.008 TIME LEFT:  2.00D  GRAD.:     4.898 HEAT: -164.2382
 CYCLE:   642 TIME:   0.008 TIME LEFT:  2.00D  GRAD.:     3.870 HEAT: -164.3051
 CYCLE:   643 TIME:   0.008 TIME LEFT:  2.00D  GRAD.:     4.077 HEAT: -164.4114
 CYCLE:   644 TIME:   0.008 TIME LEFT:  2.00D  GRAD.:     4.122 HEAT: -164.4618
 CYCLE:   645 TIME:   0.008 TIME LEFT:  2.00D  GRAD.:     3.849 HEAT: -164.6832
 CYCLE:   646 TIME:   0.008 TIME LEFT:  2.00D  GRAD.:     3.793 HEAT: -164.7809
 CYCLE:   647 TIME:   0.008 TIME LEFT:  2.00D  GRAD.:     3.885 HEAT: -165.0340
 CYCLE:   648 TIME:   0.008 TIME LEFT:  2.00D  GRAD.:     3.830 HEAT: -165.2261
 CYCLE:   649 TIME:   0.008 TIME LEFT:  2.00D  GRAD.:     4.365 HEAT: -165.6633
 CYCLE:   650 TIME:   0.004 TIME LEFT:  2.00D  GRAD.:     9.717 HEAT: -166.4373
 CYCLE:   651 TIME:   0.012 TIME LEFT:  2.00D  GRAD.:     9.725 HEAT: -167.0938
 CYCLE:   652 TIME:   0.004 TIME LEFT:  2.00D  GRAD.:     8.699 HEAT: -168.1170
 CYCLE:   653 TIME:   0.008 TIME LEFT:  2.00D  GRAD.:     8.020 HEAT: -168.9687
 CYCLE:   654 TIME:   0.012 TIME LEFT:  2.00D  GRAD.:     7.286 HEAT: -169.7014
 CYCLE:   655 TIME:   0.004 TIME LEFT:  2.00D  GRAD.:     8.315 HEAT: -170.6053
 CYCLE:   656 TIME:   0.008 TIME LEFT:  2.00D  GRAD.:     9.705 HEAT: -170.9000
 CYCLE:   657 TIME:   0.008 TIME LEFT:  2.00D  GRAD.:     7.861 HEAT: -171.3498
 CYCLE:   658 TIME:   0.008 TIME LEFT:  2.00D  GRAD.:    10.084 HEAT: -171.7669
 CYCLE:   659 TIME:   0.008 TIME LEFT:  2.00D  GRAD.:     6.613 HEAT: -172.0938
 CYCLE:   660 TIME:   0.008 TIME LEFT:  2.00D  GRAD.:     5.184 HEAT: -172.6124
 CYCLE:   661 TIME:   0.004 TIME LEFT:  2.00D  GRAD.:    10.889 HEAT: -173.3590
 CYCLE:   662 TIME:   0.016 TIME LEFT:  2.00D  GRAD.:     6.322 HEAT: -173.3701
 CYCLE:   663 TIME:   0.008 TIME LEFT:  2.00D  GRAD.:     5.056 HEAT: -173.4541
 CYCLE:   664 TIME:   0.004 TIME LEFT:  2.00D  GRAD.:     5.177 HEAT: -173.4564
 CYCLE:   665 TIME:   0.008 TIME LEFT:  2.00D  GRAD.:    10.522 HEAT: -173.4814
 CYCLE:   666 TIME:   0.008 TIME LEFT:  2.00D  GRAD.:     6.166 HEAT: -173.4948
 CYCLE:   667 TIME:   0.008 TIME LEFT:  2.00D  GRAD.:     4.976 HEAT: -173.6657
 CYCLE:   668 TIME:   0.008 TIME LEFT:  2.00D  GRAD.:     8.299 HEAT: -173.7082
 CYCLE:   669 TIME:   0.008 TIME LEFT:  2.00D  GRAD.:    12.890 HEAT: -173.8485
 CYCLE:   670 TIME:   0.004 TIME LEFT:  2.00D  GRAD.:    14.940 HEAT: -173.9056
 CYCLE:   671 TIME:   0.008 TIME LEFT:  2.00D  GRAD.:    19.332 HEAT: -173.9415
 CYCLE:   672 TIME:   0.008 TIME LEFT:  2.00D  GRAD.:    18.803 HEAT: -174.1213
 CYCLE:   673 TIME:   0.008 TIME LEFT:  2.00D  GRAD.:    15.828 HEAT: -174.1947
 CYCLE:   674 TIME:   0.008 TIME LEFT:  2.00D  GRAD.:    11.689 HEAT: -174.2830
 CYCLE:   675 TIME:   0.008 TIME LEFT:  2.00D  GRAD.:    10.399 HEAT: -174.3164
 CYCLE:   676 TIME:   0.008 TIME LEFT:  2.00D  GRAD.:     5.795 HEAT: -174.3420
 CYCLE:   677 TIME:   0.008 TIME LEFT:  2.00D  GRAD.:     9.083 HEAT: -174.3510
 CYCLE:   678 TIME:   0.008 TIME LEFT:  2.00D  GRAD.:    14.741 HEAT: -174.4068
 CYCLE:   679 TIME:   0.008 TIME LEFT:  2.00D  GRAD.:     5.120 HEAT: -174.4892
 CYCLE:   680 TIME:   0.004 TIME LEFT:  2.00D  GRAD.:     5.060 HEAT: -174.4939
 CYCLE:   681 TIME:   0.008 TIME LEFT:  2.00D  GRAD.:     4.726 HEAT: -174.5028
 CYCLE:   682 TIME:   0.008 TIME LEFT:  2.00D  GRAD.:     8.226 HEAT: -174.7682
 CYCLE:   683 TIME:   0.008 TIME LEFT:  2.00D  GRAD.:    12.801 HEAT: -174.9844
 CYCLE:   684 TIME:   0.008 TIME LEFT:  2.00D  GRAD.:    11.027 HEAT: -175.0331
 CYCLE:   685 TIME:   0.008 TIME LEFT:  2.00D  GRAD.:     7.706 HEAT: -175.1121
 CYCLE:   686 TIME:   0.008 TIME LEFT:  2.00D  GRAD.:    12.444 HEAT: -175.3134
 CYCLE:   687 TIME:   0.008 TIME LEFT:  2.00D  GRAD.:    18.065 HEAT: -175.4964
 CYCLE:   688 TIME:   0.008 TIME LEFT:  2.00D  GRAD.:    14.941 HEAT: -175.6992
 CYCLE:   689 TIME:   0.008 TIME LEFT:  2.00D  GRAD.:    11.842 HEAT: -175.7922
 CYCLE:   690 TIME:   0.008 TIME LEFT:  2.00D  GRAD.:     6.162 HEAT: -176.1660
 CYCLE:   691 TIME:   0.008 TIME LEFT:  2.00D  GRAD.:     7.834 HEAT: -176.8854
 CYCLE:   692 TIME:   0.008 TIME LEFT:  2.00D  GRAD.:     6.207 HEAT: -178.0892
 CYCLE:   693 TIME:   0.008 TIME LEFT:  2.00D  GRAD.:    17.879 HEAT: -179.2423
 CYCLE:   694 TIME:   0.008 TIME LEFT:  2.00D  GRAD.:    17.176 HEAT: -180.2833
 CYCLE:   695 TIME:   0.008 TIME LEFT:  2.00D  GRAD.:    14.525 HEAT: -181.4274
 CYCLE:   696 TIME:   0.008 TIME LEFT:  2.00D  GRAD.:    18.100 HEAT: -182.5143
 CYCLE:   697 TIME:   0.008 TIME LEFT:  2.00D  GRAD.:    25.279 HEAT: -183.7023
 CYCLE:   698 TIME:   0.008 TIME LEFT:  2.00D  GRAD.:    42.898 HEAT: -185.5577
 CYCLE:   699 TIME:   0.012 TIME LEFT:  2.00D  GRAD.:    45.639 HEAT: -186.5943
 CYCLE:   700 TIME:   0.008 TIME LEFT:  2.00D  GRAD.:    59.352 HEAT: -188.3993
 CYCLE:   701 TIME:   0.008 TIME LEFT:  2.00D  GRAD.:    37.490 HEAT: -189.9122
 CYCLE:   702 TIME:   0.008 TIME LEFT:  2.00D  GRAD.:    45.639 HEAT: -190.4364
 CYCLE:   703 TIME:   0.008 TIME LEFT:  2.00D  GRAD.:    28.257 HEAT: -191.0928
 CYCLE:   704 TIME:   0.008 TIME LEFT:  2.00D  GRAD.:    41.155 HEAT: -191.5403
 CYCLE:   705 TIME:   0.008 TIME LEFT:  2.00D  GRAD.:    37.020 HEAT: -192.0563
 CYCLE:   706 TIME:   0.012 TIME LEFT:  2.00D  GRAD.:    19.900 HEAT: -192.5725
 CYCLE:   707 TIME:   0.004 TIME LEFT:  2.00D  GRAD.:    26.626 HEAT: -192.8161
 CYCLE:   708 TIME:   0.008 TIME LEFT:  2.00D  GRAD.:    15.296 HEAT: -193.6473
 CYCLE:   709 TIME:   0.008 TIME LEFT:  2.00D  GRAD.:    18.705 HEAT: -194.6073
 CYCLE:   710 TIME:   0.012 TIME LEFT:  2.00D  GRAD.:    20.123 HEAT: -195.3199
 CYCLE:   711 TIME:   0.012 TIME LEFT:  2.00D  GRAD.:    14.418 HEAT: -196.0241
 CYCLE:   712 TIME:   0.008 TIME LEFT:  2.00D  GRAD.:    10.675 HEAT: -197.4420
 CYCLE:   713 TIME:   0.012 TIME LEFT:  2.00D  GRAD.:    16.846 HEAT: -198.9631
 CYCLE:   714 TIME:   0.008 TIME LEFT:  2.00D  GRAD.:    21.216 HEAT: -200.1284
 CYCLE:   715 TIME:   0.008 TIME LEFT:  2.00D  GRAD.:    24.446 HEAT: -202.5231
 CYCLE:   716 TIME:   0.012 TIME LEFT:  2.00D  GRAD.:    48.220 HEAT: -205.3871
 CYCLE:   717 TIME:   0.008 TIME LEFT:  2.00D  GRAD.:    45.554 HEAT: -206.1202
 CYCLE:   718 TIME:   0.012 TIME LEFT:  2.00D  GRAD.:    56.776 HEAT: -211.6772
 CYCLE:   719 TIME:   0.023 TIME LEFT:  2.00D  GRAD.:   121.860 HEAT: -212.4406
 CYCLE:   720 TIME:   0.008 TIME LEFT:  2.00D  GRAD.:    41.595 HEAT: -216.0720
 CYCLE:   721 TIME:   0.004 TIME LEFT:  2.00D  GRAD.:    37.559 HEAT: -219.3724
 CYCLE:   722 TIME:   0.012 TIME LEFT:  2.00D  GRAD.:    59.459 HEAT: -223.4230
 CYCLE:   723 TIME:   0.004 TIME LEFT:  2.00D  GRAD.:    83.787 HEAT: -226.4246
 CYCLE:   724 TIME:   0.012 TIME LEFT:  2.00D  GRAD.:    60.577 HEAT: -229.4938
 CYCLE:   725 TIME:   0.008 TIME LEFT:  2.00D  GRAD.:    58.560 HEAT: -230.5968
 CYCLE:   726 TIME:   0.008 TIME LEFT:  2.00D  GRAD.:    31.903 HEAT: -232.2983
 CYCLE:   727 TIME:   0.008 TIME LEFT:  2.00D  GRAD.:    62.415 HEAT: -233.6068
 CYCLE:   728 TIME:   0.008 TIME LEFT:  2.00D  GRAD.:    43.928 HEAT: -235.5548
 CYCLE:   729 TIME:   0.008 TIME LEFT:  2.00D  GRAD.:    47.741 HEAT: -236.3417
 CYCLE:   730 TIME:   0.008 TIME LEFT:  2.00D  GRAD.:    52.719 HEAT: -236.7333
 CYCLE:   731 TIME:   0.008 TIME LEFT:  2.00D  GRAD.:    28.930 HEAT: -237.4242
 CYCLE:   732 TIME:   0.008 TIME LEFT:  2.00D  GRAD.:    24.036 HEAT: -237.7558
 CYCLE:   733 TIME:   0.008 TIME LEFT:  2.00D  GRAD.:    22.627 HEAT: -238.0304
 CYCLE:   734 TIME:   0.008 TIME LEFT:  2.00D  GRAD.:    20.092 HEAT: -238.2785
 CYCLE:   735 TIME:   0.008 TIME LEFT:  2.00D  GRAD.:    19.466 HEAT: -238.4490
 CYCLE:   736 TIME:   0.008 TIME LEFT:  2.00D  GRAD.:    19.130 HEAT: -238.6356
 CYCLE:   737 TIME:   0.008 TIME LEFT:  2.00D  GRAD.:    15.372 HEAT: -238.8509
 CYCLE:   738 TIME:   0.008 TIME LEFT:  2.00D  GRAD.:    17.302 HEAT: -239.0407
 CYCLE:   739 TIME:   0.008 TIME LEFT:  2.00D  GRAD.:    19.424 HEAT: -239.1795
 CYCLE:   740 TIME:   0.008 TIME LEFT:  2.00D  GRAD.:    19.583 HEAT: -239.3706
 CYCLE:   741 TIME:   0.008 TIME LEFT:  2.00D  GRAD.:    18.359 HEAT: -239.6258
 CYCLE:   742 TIME:   0.012 TIME LEFT:  2.00D  GRAD.:    25.666 HEAT: -239.8271
 CYCLE:   743 TIME:   0.023 TIME LEFT:  2.00D  GRAD.:    38.886 HEAT: -239.9132
 CYCLE:   744 TIME:   0.008 TIME LEFT:  2.00D  GRAD.:    14.477 HEAT: -240.2389
 CYCLE:   745 TIME:   0.012 TIME LEFT:  2.00D  GRAD.:    10.179 HEAT: -240.3979
 CYCLE:   746 TIME:   0.008 TIME LEFT:  2.00D  GRAD.:    14.773 HEAT: -240.5207
 CYCLE:   747 TIME:   0.004 TIME LEFT:  2.00D  GRAD.:    13.162 HEAT: -240.6361
 CYCLE:   748 TIME:   0.012 TIME LEFT:  2.00D  GRAD.:    13.203 HEAT: -240.7034
 CYCLE:   749 TIME:   0.004 TIME LEFT:  2.00D  GRAD.:    11.035 HEAT: -240.7814
 CYCLE:   750 TIME:   0.008 TIME LEFT:  2.00D  GRAD.:    10.840 HEAT: -240.8320
 CYCLE:   751 TIME:   0.012 TIME LEFT:  2.00D  GRAD.:    15.534 HEAT: -240.8926
 CYCLE:   752 TIME:   0.008 TIME LEFT:  2.00D  GRAD.:     7.016 HEAT: -240.9456
 CYCLE:   753 TIME:   0.008 TIME LEFT:  2.00D  GRAD.:     5.951 HEAT: -240.9922
 CYCLE:   754 TIME:   0.008 TIME LEFT:  2.00D  GRAD.:     7.560 HEAT: -241.0320
 CYCLE:   755 TIME:   0.008 TIME LEFT:  2.00D  GRAD.:     7.179 HEAT: -241.0613
 CYCLE:   756 TIME:   0.008 TIME LEFT:  2.00D  GRAD.:     8.708 HEAT: -241.0931
 CYCLE:   757 TIME:   0.008 TIME LEFT:  2.00D  GRAD.:     8.320 HEAT: -241.1174
 CYCLE:   758 TIME:   0.008 TIME LEFT:  2.00D  GRAD.:     5.326 HEAT: -241.1507
 CYCLE:   759 TIME:   0.008 TIME LEFT:  2.00D  GRAD.:     4.775 HEAT: -241.1665
 CYCLE:   760 TIME:   0.004 TIME LEFT:  2.00D  GRAD.:     5.153 HEAT: -241.1847
 CYCLE:   761 TIME:   0.008 TIME LEFT:  2.00D  GRAD.:     4.969 HEAT: -241.2035
 CYCLE:   762 TIME:   0.008 TIME LEFT:  2.00D  GRAD.:     4.662 HEAT: -241.2276
 CYCLE:   763 TIME:   0.008 TIME LEFT:  2.00D  GRAD.:     4.477 HEAT: -241.2405
 CYCLE:   764 TIME:   0.008 TIME LEFT:  2.00D  GRAD.:     5.981 HEAT: -241.2449
 CYCLE:   765 TIME:   0.008 TIME LEFT:  2.00D  GRAD.:     4.506 HEAT: -241.2572
 CYCLE:   766 TIME:   0.020 TIME LEFT:  2.00D  GRAD.:     5.130 HEAT: -241.2581
 CYCLE:   767 TIME:   0.008 TIME LEFT:  2.00D  GRAD.:     3.080 HEAT: -241.2704
 CYCLE:   768 TIME:   0.008 TIME LEFT:  2.00D  GRAD.:     3.602 HEAT: -241.2751
 CYCLE:   769 TIME:   0.008 TIME LEFT:  2.00D  GRAD.:     3.850 HEAT: -241.2797
 CYCLE:   770 TIME:   0.008 TIME LEFT:  2.00D  GRAD.:     8.055 HEAT: -241.2911
 CYCLE:   771 TIME:   0.012 TIME LEFT:  2.00D  GRAD.:     5.212 HEAT: -241.2975
 CYCLE:   772 TIME:   0.008 TIME LEFT:  2.00D  GRAD.:     2.717 HEAT: -241.3031
 CYCLE:   773 TIME:   0.008 TIME LEFT:  2.00D  GRAD.:     3.279 HEAT: -241.3121
 CYCLE:   774 TIME:   0.008 TIME LEFT:  2.00D  GRAD.:     6.421 HEAT: -241.3216
 CYCLE:   775 TIME:   0.012 TIME LEFT:  2.00D  GRAD.:     5.542 HEAT: -241.3284
 CYCLE:   776 TIME:   0.004 TIME LEFT:  2.00D  GRAD.:     4.228 HEAT: -241.3426
 CYCLE:   777 TIME:   0.008 TIME LEFT:  2.00D  GRAD.:     3.227 HEAT: -241.3545
 CYCLE:   778 TIME:   0.008 TIME LEFT:  2.00D  GRAD.:     5.947 HEAT: -241.3624
 CYCLE:   779 TIME:   0.008 TIME LEFT:  2.00D  GRAD.:     5.982 HEAT: -241.3709
 CYCLE:   780 TIME:   0.008 TIME LEFT:  2.00D  GRAD.:     2.709 HEAT: -241.3798
 CYCLE:   781 TIME:   0.012 TIME LEFT:  2.00D  GRAD.:     1.809 HEAT: -241.3827
 CYCLE:   782 TIME:   0.008 TIME LEFT:  2.00D  GRAD.:     1.864 HEAT: -241.3863
 CYCLE:   783 TIME:   0.008 TIME LEFT:  2.00D  GRAD.:     6.208 HEAT: -241.3939
 CYCLE:   784 TIME:   0.008 TIME LEFT:  2.00D  GRAD.:     5.945 HEAT: -241.4023
 CYCLE:   785 TIME:   0.012 TIME LEFT:  2.00D  GRAD.:     5.238 HEAT: -241.4141
 CYCLE:   786 TIME:   0.008 TIME LEFT:  2.00D  GRAD.:     4.500 HEAT: -241.4306
 CYCLE:   787 TIME:   0.008 TIME LEFT:  2.00D  GRAD.:     4.652 HEAT: -241.4423
 CYCLE:   788 TIME:   0.008 TIME LEFT:  2.00D  GRAD.:     3.800 HEAT: -241.4610
 CYCLE:   789 TIME:   0.008 TIME LEFT:  2.00D  GRAD.:     3.798 HEAT: -241.4740
 CYCLE:   790 TIME:   0.008 TIME LEFT:  2.00D  GRAD.:     4.333 HEAT: -241.4808
 CYCLE:   791 TIME:   0.008 TIME LEFT:  2.00D  GRAD.:     2.742 HEAT: -241.4865
 CYCLE:   792 TIME:   0.004 TIME LEFT:  2.00D  GRAD.:     2.682 HEAT: -241.4914
 CYCLE:   793 TIME:   0.008 TIME LEFT:  2.00D  GRAD.:     4.491 HEAT: -241.4987
 CYCLE:   794 TIME:   0.008 TIME LEFT:  2.00D  GRAD.:     2.677 HEAT: -241.5046
 CYCLE:   795 TIME:   0.008 TIME LEFT:  2.00D  GRAD.:     1.723 HEAT: -241.5106
 CYCLE:   796 TIME:   0.008 TIME LEFT:  2.00D  GRAD.:     3.229 HEAT: -241.5119
 CYCLE:   797 TIME:   0.008 TIME LEFT:  2.00D  GRAD.:     2.543 HEAT: -241.5166
 CYCLE:   798 TIME:   0.008 TIME LEFT:  2.00D  GRAD.:     6.073 HEAT: -241.5118
 CYCLE:   799 TIME:   0.008 TIME LEFT:  2.00D  GRAD.:     3.688 HEAT: -241.5291
 CYCLE:   800 TIME:   0.008 TIME LEFT:  2.00D  GRAD.:     2.197 HEAT: -241.5316
 CYCLE:   801 TIME:   0.008 TIME LEFT:  2.00D  GRAD.:     2.215 HEAT: -241.5356
 CYCLE:   802 TIME:   0.008 TIME LEFT:  2.00D  GRAD.:     3.519 HEAT: -241.5391
 CYCLE:   803 TIME:   0.008 TIME LEFT:  2.00D  GRAD.:     4.615 HEAT: -241.5483
 CYCLE:   804 TIME:   0.016 TIME LEFT:  2.00D  GRAD.:     8.020 HEAT: -241.5575
 CYCLE:   805 TIME:   0.008 TIME LEFT:  2.00D  GRAD.:     8.346 HEAT: -241.5900
 CYCLE:   806 TIME:   0.008 TIME LEFT:  2.00D  GRAD.:    13.866 HEAT: -241.5976
 CYCLE:   807 TIME:   0.012 TIME LEFT:  2.00D  GRAD.:    14.991 HEAT: -241.5989
 CYCLE:   808 TIME:   0.012 TIME LEFT:  2.00D  GRAD.:     9.044 HEAT: -241.6950
 CYCLE:   809 TIME:   0.008 TIME LEFT:  2.00D  GRAD.:     8.097 HEAT: -241.7165
 CYCLE:   810 TIME:   0.008 TIME LEFT:  2.00D  GRAD.:     5.555 HEAT: -241.7608
 CYCLE:   811 TIME:   0.008 TIME LEFT:  2.00D  GRAD.:     5.419 HEAT: -241.8131
 CYCLE:   812 TIME:   0.008 TIME LEFT:  2.00D  GRAD.:     5.933 HEAT: -241.8404
 CYCLE:   813 TIME:   0.004 TIME LEFT:  2.00D  GRAD.:     4.740 HEAT: -241.8537
 CYCLE:   814 TIME:   0.008 TIME LEFT:  2.00D  GRAD.:     8.326 HEAT: -241.8684
 CYCLE:   815 TIME:   0.008 TIME LEFT:  2.00D  GRAD.:     5.860 HEAT: -241.8863
 CYCLE:   816 TIME:   0.008 TIME LEFT:  2.00D  GRAD.:     3.539 HEAT: -241.8954
 CYCLE:   817 TIME:   0.008 TIME LEFT:  2.00D  GRAD.:     3.471 HEAT: -241.9066
 CYCLE:   818 TIME:   0.008 TIME LEFT:  2.00D  GRAD.:     2.921 HEAT: -241.9157
 CYCLE:   819 TIME:   0.008 TIME LEFT:  2.00D  GRAD.:     2.027 HEAT: -241.9204
 CYCLE:   820 TIME:   0.008 TIME LEFT:  2.00D  GRAD.:     2.698 HEAT: -241.9234
 CYCLE:   821 TIME:   0.008 TIME LEFT:  2.00D  GRAD.:     2.165 HEAT: -241.9253
 CYCLE:   822 TIME:   0.008 TIME LEFT:  2.00D  GRAD.:     2.940 HEAT: -241.9290
 CYCLE:   823 TIME:   0.004 TIME LEFT:  2.00D  GRAD.:     2.096 HEAT: -241.9319
 CYCLE:   824 TIME:   0.008 TIME LEFT:  2.00D  GRAD.:     2.169 HEAT: -241.9345
 CYCLE:   825 TIME:   0.008 TIME LEFT:  2.00D  GRAD.:     3.140 HEAT: -241.9393
 CYCLE:   826 TIME:   0.008 TIME LEFT:  2.00D  GRAD.:     2.504 HEAT: -241.9431
 CYCLE:   827 TIME:   0.008 TIME LEFT:  2.00D  GRAD.:     1.471 HEAT: -241.9479
 CYCLE:   828 TIME:   0.008 TIME LEFT:  2.00D  GRAD.:     1.961 HEAT: -241.9452
 CYCLE:   829 TIME:   0.008 TIME LEFT:  2.00D  GRAD.:     1.489 HEAT: -241.9617
 CYCLE:   830 TIME:   0.008 TIME LEFT:  2.00D  GRAD.:     1.569 HEAT: -241.9660
 CYCLE:   831 TIME:   0.008 TIME LEFT:  2.00D  GRAD.:     1.310 HEAT: -241.9727
 CYCLE:   832 TIME:   0.008 TIME LEFT:  2.00D  GRAD.:     1.423 HEAT: -241.9772
 CYCLE:   833 TIME:   0.012 TIME LEFT:  2.00D  GRAD.:     1.808 HEAT: -241.9794
 CYCLE:   834 TIME:   0.008 TIME LEFT:  2.00D  GRAD.:     1.691 HEAT: -241.9850
 CYCLE:   835 TIME:   0.012 TIME LEFT:  2.00D  GRAD.:     1.479 HEAT: -241.9860
 CYCLE:   836 TIME:   0.008 TIME LEFT:  2.00D  GRAD.:     1.453 HEAT: -241.9872
 CYCLE:   837 TIME:   0.012 TIME LEFT:  2.00D  GRAD.:     1.486 HEAT: -241.9885
 CYCLE:   838 TIME:   0.012 TIME LEFT:  2.00D  GRAD.:     7.042 HEAT: -242.0010
 CYCLE:   839 TIME:   0.016 TIME LEFT:  2.00D  GRAD.:     3.883 HEAT: -242.0363
 CYCLE:   840 TIME:   0.023 TIME LEFT:  2.00D  GRAD.:     4.039 HEAT: -242.0456
 CYCLE:   841 TIME:   0.012 TIME LEFT:  2.00D  GRAD.:     3.685 HEAT: -242.0955
 CYCLE:   842 TIME:   0.012 TIME LEFT:  2.00D  GRAD.:     3.499 HEAT: -242.1060
 CYCLE:   843 TIME:   0.012 TIME LEFT:  2.00D  GRAD.:     3.488 HEAT: -242.1219
 CYCLE:   844 TIME:   0.008 TIME LEFT:  2.00D  GRAD.:     3.571 HEAT: -242.1259
 CYCLE:   845 TIME:   0.012 TIME LEFT:  2.00D  GRAD.:     3.400 HEAT: -242.1290
 CYCLE:   846 TIME:   0.008 TIME LEFT:  2.00D  GRAD.:     7.365 HEAT: -242.1442
 CYCLE:   847 TIME:   0.008 TIME LEFT:  2.00D  GRAD.:     2.656 HEAT: -242.1505
 CYCLE:   848 TIME:   0.012 TIME LEFT:  2.00D  GRAD.:     2.054 HEAT: -242.1421
 CYCLE:   849 TIME:   0.012 TIME LEFT:  2.00D  GRAD.:     1.872 HEAT: -242.1561
 CYCLE:   850 TIME:   0.008 TIME LEFT:  2.00D  GRAD.:     4.123 HEAT: -242.1590
 CYCLE:   851 TIME:   0.012 TIME LEFT:  2.00D  GRAD.:     4.030 HEAT: -242.1629
 CYCLE:   852 TIME:   0.008 TIME LEFT:  2.00D  GRAD.:     3.706 HEAT: -242.1729
 CYCLE:   853 TIME:   0.008 TIME LEFT:  2.00D  GRAD.:     3.457 HEAT: -242.2289
 CYCLE:   854 TIME:   0.012 TIME LEFT:  2.00D  GRAD.:     7.788 HEAT: -242.2606
 CYCLE:   855 TIME:   0.008 TIME LEFT:  2.00D  GRAD.:     4.339 HEAT: -242.2879
 CYCLE:   856 TIME:   0.012 TIME LEFT:  2.00D  GRAD.:     4.214 HEAT: -242.3078
 CYCLE:   857 TIME:   0.004 TIME LEFT:  2.00D  GRAD.:     3.481 HEAT: -242.3147
 CYCLE:   858 TIME:   0.012 TIME LEFT:  2.00D  GRAD.:     2.687 HEAT: -242.3177
 CYCLE:   859 TIME:   0.008 TIME LEFT:  2.00D  GRAD.:     9.587 HEAT: -242.3192
 CYCLE:   860 TIME:   0.008 TIME LEFT:  2.00D  GRAD.:     6.057 HEAT: -242.3429
 CYCLE:   861 TIME:   0.008 TIME LEFT:  2.00D  GRAD.:     2.949 HEAT: -242.3567
 CYCLE:   862 TIME:   0.008 TIME LEFT:  2.00D  GRAD.:     2.837 HEAT: -242.3658
 CYCLE:   863 TIME:   0.008 TIME LEFT:  2.00D  GRAD.:     2.040 HEAT: -242.3703
 CYCLE:   864 TIME:   0.008 TIME LEFT:  2.00D  GRAD.:     3.089 HEAT: -242.3749
 CYCLE:   865 TIME:   0.008 TIME LEFT:  2.00D  GRAD.:     8.992 HEAT: -242.3922
 CYCLE:   866 TIME:   0.012 TIME LEFT:  2.00D  GRAD.:     2.382 HEAT: -242.4566
 CYCLE:   867 TIME:   0.004 TIME LEFT:  2.00D  GRAD.:     1.893 HEAT: -242.4593
 CYCLE:   868 TIME:   0.008 TIME LEFT:  2.00D  GRAD.:     2.336 HEAT: -242.4734
 CYCLE:   869 TIME:   0.012 TIME LEFT:  2.00D  GRAD.:     1.657 HEAT: -242.4776
 CYCLE:   870 TIME:   0.008 TIME LEFT:  2.00D  GRAD.:     5.466 HEAT: -242.5448
 CYCLE:   871 TIME:   0.008 TIME LEFT:  2.00D  GRAD.:     3.254 HEAT: -242.6441
 CYCLE:   872 TIME:   0.008 TIME LEFT:  2.00D  GRAD.:     4.783 HEAT: -242.7027
 CYCLE:   873 TIME:   0.008 TIME LEFT:  2.00D  GRAD.:     4.653 HEAT: -242.8004
 CYCLE:   874 TIME:   0.008 TIME LEFT:  2.00D  GRAD.:     6.261 HEAT: -242.9243
 CYCLE:   875 TIME:   0.008 TIME LEFT:  2.00D  GRAD.:     9.670 HEAT: -243.1188
 CYCLE:   876 TIME:   0.012 TIME LEFT:  2.00D  GRAD.:    11.591 HEAT: -243.1699
 CYCLE:   877 TIME:   0.004 TIME LEFT:  2.00D  GRAD.:     9.369 HEAT: -243.3474
 CYCLE:   878 TIME:   0.012 TIME LEFT:  2.00D  GRAD.:     7.478 HEAT: -243.3831
 CYCLE:   879 TIME:   0.004 TIME LEFT:  2.00D  GRAD.:     8.253 HEAT: -243.6543
 CYCLE:   880 TIME:   0.008 TIME LEFT:  2.00D  GRAD.:    15.798 HEAT: -243.7387
 CYCLE:   881 TIME:   0.012 TIME LEFT:  2.00D  GRAD.:    17.358 HEAT: -243.8610
 CYCLE:   882 TIME:   0.008 TIME LEFT:  2.00D  GRAD.:    12.558 HEAT: -244.0208
 CYCLE:   883 TIME:   0.016 TIME LEFT:  2.00D  GRAD.:    26.429 HEAT: -244.0412
 CYCLE:   884 TIME:   0.008 TIME LEFT:  2.00D  GRAD.:     8.923 HEAT: -244.2080
 CYCLE:   885 TIME:   0.008 TIME LEFT:  2.00D  GRAD.:     8.960 HEAT: -244.2614
 CYCLE:   886 TIME:   0.008 TIME LEFT:  2.00D  GRAD.:     5.843 HEAT: -244.3053
 CYCLE:   887 TIME:   0.008 TIME LEFT:  2.00D  GRAD.:    12.168 HEAT: -244.3451
 CYCLE:   888 TIME:   0.008 TIME LEFT:  2.00D  GRAD.:     9.233 HEAT: -244.5076
 CYCLE:   889 TIME:   0.008 TIME LEFT:  2.00D  GRAD.:    29.101 HEAT: -244.5299
 CYCLE:   890 TIME:   0.008 TIME LEFT:  2.00D  GRAD.:     8.906 HEAT: -244.6838
 CYCLE:   891 TIME:   0.008 TIME LEFT:  2.00D  GRAD.:    15.597 HEAT: -244.7437
 CYCLE:   892 TIME:   0.008 TIME LEFT:  2.00D  GRAD.:     7.446 HEAT: -244.7663
 CYCLE:   893 TIME:   0.008 TIME LEFT:  2.00D  GRAD.:    11.383 HEAT: -244.7943
 CYCLE:   894 TIME:   0.004 TIME LEFT:  2.00D  GRAD.:     7.524 HEAT: -244.8181
 CYCLE:   895 TIME:   0.008 TIME LEFT:  2.00D  GRAD.:     4.387 HEAT: -244.8420
 CYCLE:   896 TIME:   0.008 TIME LEFT:  2.00D  GRAD.:     5.661 HEAT: -244.8614
 CYCLE:   897 TIME:   0.008 TIME LEFT:  2.00D  GRAD.:     4.563 HEAT: -244.8781
 CYCLE:   898 TIME:   0.008 TIME LEFT:  2.00D  GRAD.:     5.840 HEAT: -244.8983
 CYCLE:   899 TIME:   0.008 TIME LEFT:  2.00D  GRAD.:     6.320 HEAT: -244.9085
 CYCLE:   900 TIME:   0.008 TIME LEFT:  2.00D  GRAD.:     6.394 HEAT: -244.9122
 CYCLE:   901 TIME:   0.008 TIME LEFT:  2.00D  GRAD.:     4.724 HEAT: -244.9286
 CYCLE:   902 TIME:   0.008 TIME LEFT:  2.00D  GRAD.:     4.295 HEAT: -244.9399
 CYCLE:   903 TIME:   0.008 TIME LEFT:  2.00D  GRAD.:     4.429 HEAT: -244.9504
 CYCLE:   904 TIME:   0.012 TIME LEFT:  2.00D  GRAD.:     4.941 HEAT: -244.9645
 CYCLE:   905 TIME:   0.008 TIME LEFT:  2.00D  GRAD.:     4.610 HEAT: -244.9772
 CYCLE:   906 TIME:   0.008 TIME LEFT:  2.00D  GRAD.:     4.225 HEAT: -244.9993
 CYCLE:   907 TIME:   0.008 TIME LEFT:  2.00D  GRAD.:     3.788 HEAT: -245.0136
 CYCLE:   908 TIME:   0.008 TIME LEFT:  2.00D  GRAD.:     7.152 HEAT: -245.0278
 CYCLE:   909 TIME:   0.008 TIME LEFT:  2.00D  GRAD.:     5.925 HEAT: -245.0469
 CYCLE:   910 TIME:   0.012 TIME LEFT:  2.00D  GRAD.:     6.368 HEAT: -245.0664
 CYCLE:   911 TIME:   0.012 TIME LEFT:  2.00D  GRAD.:     4.195 HEAT: -245.0881
 CYCLE:   912 TIME:   0.004 TIME LEFT:  2.00D  GRAD.:     4.587 HEAT: -245.1030
 CYCLE:   913 TIME:   0.008 TIME LEFT:  2.00D  GRAD.:     3.167 HEAT: -245.1159
 CYCLE:   914 TIME:   0.008 TIME LEFT:  2.00D  GRAD.:     7.282 HEAT: -245.1210
 CYCLE:   915 TIME:   0.012 TIME LEFT:  2.00D  GRAD.:     5.109 HEAT: -245.1372
 CYCLE:   916 TIME:   0.008 TIME LEFT:  2.00D  GRAD.:     3.624 HEAT: -245.1459
 CYCLE:   917 TIME:   0.008 TIME LEFT:  2.00D  GRAD.:     3.027 HEAT: -245.1497
 CYCLE:   918 TIME:   0.008 TIME LEFT:  2.00D  GRAD.:     2.702 HEAT: -245.1557
 CYCLE:   919 TIME:   0.008 TIME LEFT:  2.00D  GRAD.:     2.272 HEAT: -245.1607
 CYCLE:   920 TIME:   0.012 TIME LEFT:  2.00D  GRAD.:     2.026 HEAT: -245.1634
 CYCLE:   921 TIME:   0.008 TIME LEFT:  2.00D  GRAD.:     1.725 HEAT: -245.1660
 CYCLE:   922 TIME:   0.008 TIME LEFT:  2.00D  GRAD.:     1.705 HEAT: -245.1683
 CYCLE:   923 TIME:   0.008 TIME LEFT:  2.00D  GRAD.:     1.674 HEAT: -245.1705
 CYCLE:   924 TIME:   0.012 TIME LEFT:  2.00D  GRAD.:     1.593 HEAT: -245.1721
 CYCLE:   925 TIME:   0.008 TIME LEFT:  2.00D  GRAD.:     2.964 HEAT: -245.1798
 CYCLE:   926 TIME:   0.012 TIME LEFT:  2.00D  GRAD.:     2.932 HEAT: -245.1838
 CYCLE:   927 TIME:   0.008 TIME LEFT:  2.00D  GRAD.:     2.458 HEAT: -245.1899
 CYCLE:   928 TIME:   0.008 TIME LEFT:  2.00D  GRAD.:     2.887 HEAT: -245.2022
 CYCLE:   929 TIME:   0.008 TIME LEFT:  2.00D  GRAD.:     2.733 HEAT: -245.2070
 CYCLE:   930 TIME:   0.023 TIME LEFT:  2.00D  GRAD.:     3.510 HEAT: -245.2121
 CYCLE:   931 TIME:   0.008 TIME LEFT:  2.00D  GRAD.:     3.381 HEAT: -245.2226
 CYCLE:   932 TIME:   0.008 TIME LEFT:  2.00D  GRAD.:     3.520 HEAT: -245.2425
 CYCLE:   933 TIME:   0.008 TIME LEFT:  2.00D  GRAD.:     4.024 HEAT: -245.2595
 CYCLE:   934 TIME:   0.008 TIME LEFT:  2.00D  GRAD.:     7.756 HEAT: -245.2834
 CYCLE:   935 TIME:   0.012 TIME LEFT:  2.00D  GRAD.:     4.139 HEAT: -245.3010
 CYCLE:   936 TIME:   0.008 TIME LEFT:  2.00D  GRAD.:     3.757 HEAT: -245.3152
 CYCLE:   937 TIME:   0.008 TIME LEFT:  2.00D  GRAD.:     4.006 HEAT: -245.3245
 CYCLE:   938 TIME:   0.008 TIME LEFT:  2.00D  GRAD.:     6.431 HEAT: -245.3320
 CYCLE:   939 TIME:   0.012 TIME LEFT:  2.00D  GRAD.:     3.909 HEAT: -245.3399
 CYCLE:   940 TIME:   0.008 TIME LEFT:  2.00D  GRAD.:     2.616 HEAT: -245.3446
 CYCLE:   941 TIME:   0.008 TIME LEFT:  2.00D  GRAD.:     1.600 HEAT: -245.3481
 CYCLE:   942 TIME:   0.008 TIME LEFT:  2.00D  GRAD.:     3.168 HEAT: -245.3515
 CYCLE:   943 TIME:   0.008 TIME LEFT:  2.00D  GRAD.:     2.774 HEAT: -245.3537
 CYCLE:   944 TIME:   0.012 TIME LEFT:  2.00D  GRAD.:     2.499 HEAT: -245.3589
 CYCLE:   945 TIME:   0.008 TIME LEFT:  2.00D  GRAD.:     2.660 HEAT: -245.3611
 CYCLE:   946 TIME:   0.008 TIME LEFT:  2.00D  GRAD.:     2.396 HEAT: -245.3642
 CYCLE:   947 TIME:   0.008 TIME LEFT:  2.00D  GRAD.:     3.846 HEAT: -245.3652
 CYCLE:   948 TIME:   0.008 TIME LEFT:  2.00D  GRAD.:     2.882 HEAT: -245.3700
 CYCLE:   949 TIME:   0.012 TIME LEFT:  2.00D  GRAD.:     3.924 HEAT: -245.3703
 CYCLE:   950 TIME:   0.008 TIME LEFT:  2.00D  GRAD.:     2.663 HEAT: -245.3762
 CYCLE:   951 TIME:   0.008 TIME LEFT:  2.00D  GRAD.:     2.231 HEAT: -245.3788
 CYCLE:   952 TIME:   0.008 TIME LEFT:  2.00D  GRAD.:     5.009 HEAT: -245.3712
 CYCLE:   953 TIME:   0.012 TIME LEFT:  2.00D  GRAD.:     2.539 HEAT: -245.3850
 CYCLE:   954 TIME:   0.008 TIME LEFT:  2.00D  GRAD.:     2.646 HEAT: -245.3821
 CYCLE:   955 TIME:   0.012 TIME LEFT:  2.00D  GRAD.:     2.027 HEAT: -245.3878
 CYCLE:   956 TIME:   0.008 TIME LEFT:  2.00D  GRAD.:     3.745 HEAT: -245.3815
 CYCLE:   957 TIME:   0.008 TIME LEFT:  2.00D  GRAD.:     2.123 HEAT: -245.3909
 CYCLE:   958 TIME:   0.020 TIME LEFT:  2.00D  GRAD.:     1.954 HEAT: -245.3890
 CYCLE:   959 TIME:   0.004 TIME LEFT:  2.00D  GRAD.:     1.638 HEAT: -245.3936
 CYCLE:   960 TIME:   0.012 TIME LEFT:  2.00D  GRAD.:     1.832 HEAT: -245.3955
 CYCLE:   961 TIME:   0.008 TIME LEFT:  2.00D  GRAD.:     1.693 HEAT: -245.3972
 CYCLE:   962 TIME:   0.012 TIME LEFT:  2.00D  GRAD.:     2.124 HEAT: -245.4010
 CYCLE:   963 TIME:   0.008 TIME LEFT:  2.00D  GRAD.:     2.022 HEAT: -245.4047
 CYCLE:   964 TIME:   0.008 TIME LEFT:  2.00D  GRAD.:     2.203 HEAT: -245.4095
 CYCLE:   965 TIME:   0.008 TIME LEFT:  2.00D  GRAD.:     2.677 HEAT: -245.4176
 CYCLE:   966 TIME:   0.012 TIME LEFT:  2.00D  GRAD.:     2.995 HEAT: -245.4250
 CYCLE:   967 TIME:   0.008 TIME LEFT:  2.00D  GRAD.:     3.708 HEAT: -245.4325
 CYCLE:   968 TIME:   0.008 TIME LEFT:  2.00D  GRAD.:     4.347 HEAT: -245.4487
 CYCLE:   969 TIME:   0.008 TIME LEFT:  2.00D  GRAD.:     2.961 HEAT: -245.4584
 CYCLE:   970 TIME:   0.012 TIME LEFT:  2.00D  GRAD.:     1.469 HEAT: -245.4697
 CYCLE:   971 TIME:   0.008 TIME LEFT:  2.00D  GRAD.:     1.986 HEAT: -245.4727
 CYCLE:   972 TIME:   0.008 TIME LEFT:  2.00D  GRAD.:     2.144 HEAT: -245.4734
 CYCLE:   973 TIME:   0.008 TIME LEFT:  2.00D  GRAD.:     1.911 HEAT: -245.4755
 CYCLE:   974 TIME:   0.012 TIME LEFT:  2.00D  GRAD.:     1.908 HEAT: -245.4768
 CYCLE:   975 TIME:   0.012 TIME LEFT:  2.00D  GRAD.:     2.841 HEAT: -245.4771
 CYCLE:   976 TIME:   0.008 TIME LEFT:  2.00D  GRAD.:     1.915 HEAT: -245.4797
 CYCLE:   977 TIME:   0.012 TIME LEFT:  2.00D  GRAD.:     1.521 HEAT: -245.4805
 CYCLE:   978 TIME:   0.008 TIME LEFT:  2.00D  GRAD.:     1.376 HEAT: -245.4813
 CYCLE:   979 TIME:   0.008 TIME LEFT:  2.00D  GRAD.:     2.362 HEAT: -245.4812
 CYCLE:   980 TIME:   0.012 TIME LEFT:  2.00D  GRAD.:     1.025 HEAT: -245.4832
 CYCLE:   981 TIME:   0.008 TIME LEFT:  2.00D  GRAD.:     1.233 HEAT: -245.4837
 CYCLE:   982 TIME:   0.008 TIME LEFT:  2.00D  GRAD.:     1.136 HEAT: -245.4843
 CYCLE:   983 TIME:   0.008 TIME LEFT:  2.00D  GRAD.:     1.205 HEAT: -245.4857
 CYCLE:   984 TIME:   0.012 TIME LEFT:  2.00D  GRAD.:     1.640 HEAT: -245.4889
 CYCLE:   985 TIME:   0.008 TIME LEFT:  2.00D  GRAD.:     1.574 HEAT: -245.4913
 CYCLE:   986 TIME:   0.008 TIME LEFT:  2.00D  GRAD.:     1.226 HEAT: -245.4929
 CYCLE:   987 TIME:   0.008 TIME LEFT:  2.00D  GRAD.:     1.032 HEAT: -245.4942
 CYCLE:   988 TIME:   0.012 TIME LEFT:  2.00D  GRAD.:     1.139 HEAT: -245.4951
 CYCLE:   989 TIME:   0.008 TIME LEFT:  2.00D  GRAD.:     1.595 HEAT: -245.4970
 CYCLE:   990 TIME:   0.008 TIME LEFT:  2.00D  GRAD.:     2.672 HEAT: -245.4995
 CYCLE:   991 TIME:   0.008 TIME LEFT:  2.00D  GRAD.:     3.185 HEAT: -245.5043
 CYCLE:   992 TIME:   0.020 TIME LEFT:  2.00D  GRAD.:     6.498 HEAT: -245.5176
 CYCLE:   993 TIME:   0.008 TIME LEFT:  2.00D  GRAD.:     2.094 HEAT: -245.5248
 CYCLE:   994 TIME:   0.008 TIME LEFT:  2.00D  GRAD.:     2.082 HEAT: -245.5348
 CYCLE:   995 TIME:   0.012 TIME LEFT:  2.00D  GRAD.:     8.148 HEAT: -245.5400
 CYCLE:   996 TIME:   0.008 TIME LEFT:  2.00D  GRAD.:     2.312 HEAT: -245.5470
 CYCLE:   997 TIME:   0.008 TIME LEFT:  2.00D  GRAD.:     3.558 HEAT: -245.5501
 CYCLE:   998 TIME:   0.012 TIME LEFT:  2.00D  GRAD.:     3.822 HEAT: -245.5597
 CYCLE:   999 TIME:   0.004 TIME LEFT:  2.00D  GRAD.:     6.712 HEAT: -245.5621
 CYCLE:  1000 TIME:   0.023 TIME LEFT:  2.00D  GRAD.:     3.162 HEAT: -245.5658

     EXCESS NUMBER OF OPTIMIZATION CYCLES


          CURRENT VALUE OF GRADIENT NORM =    1.968878

          CURRENT VALUE OF GEOMETRY

PM7 EF CHARGE=0 XYZ CYCLES=1000
 Salt Alignment 140th Calculation

  C     1.77160983 +1   9.76977329 +1  -4.80986284 +1
  C     2.13870660 +1  10.88379391 +1  -5.10895680 +1
  C     1.01845793 +1   4.96630706 +1  -2.31825894 +1
  C     2.38648950 +1   8.89530128 +1  -1.62618204 +1
  C     5.55247510 +1   8.51172999 +1  -3.26080993 +1
  C     4.57977464 +1   7.92771265 +1  -3.68325656 +1
  H     1.41621086 +1   8.82336589 +1  -4.60371410 +1
  H     2.44042672 +1  11.84153811 +1  -5.37687862 +1
  H     6.39859973 +1   9.00142576 +1  -2.90454284 +1
  H     3.78983925 +1   7.38331949 +1  -4.06266343 +1
  C     1.27057088 +1   7.44440648 +1   0.14860548 +1
  C     0.83547625 +1   6.18173008 +1  -0.07176982 +1
  H     1.16947599 +1   7.92734012 +1   1.13395094 +1
  N     1.86964155 +1   8.22600950 +1  -0.81367502 +1
  N     0.93620714 +1   5.53440703 +1  -1.27999831 +1
  H     0.36344298 +1   5.59103519 +1   0.73113904 +1
 Li     3.59675006 +1  10.33392916 +1  -2.94316558 +1
  B     4.61020818 +1  12.11553481 +1  -2.44394487 +1
  F     4.83180428 +1  11.04767978 +1  -1.58168863 +1
  F     4.91655255 +1  11.57396717 +1  -3.69087005 +1
  F     5.25702479 +1  13.24370966 +1  -2.14215606 +1
  F     3.22415375 +1  12.20857205 +1  -2.48306021 +1
 



 TOTAL JOB TIME:             8.71 SECONDS

 == MOPAC DONE ==
